<?xml version="1.0" encoding="UTF-8"?>

<!-- generated on Mon 07 Jun 2021 07:43:38 PM -03 by Eclipse SUMO GUI Version 1.1.0
<configuration xmlns:xsi="http://www.w3.org/2001/XMLSchema-instance" xsi:noNamespaceSchemaLocation="http://sumo.dlr.de/xsd/sumoConfiguration.xsd">

    <input>
        <net-file value="contrib/ndn4ivc/traces/grid-map/map.net.xml"/>
        <route-files value="contrib/ndn4ivc/traces/grid-map/passenger_routes.rou.xml,contrib/ndn4ivc/traces/grid-map/passenger_accident.rou.xml"/>
    </input>

    <output>
        <emission-output value="contrib/ndn4ivc/traces/grid-map/sumo-output.emission.xml"/>
        <tripinfo-output value="contrib/ndn4ivc/traces/grid-map/sumo-output.tripinfo.xml"/>
    </output>

    <time>
        <begin value="0"/>
        <end value="3600"/>
        <step-length value="0.100000"/>
    </time>

    <report>
        <verbose value="true"/>
        <error-log value="contrib/ndn4ivc/traces/grid-map/SumoError.log"/>
        <no-step-log value="true"/>
    </report>

    <traci_server>
        <remote-port value="3400"/>
    </traci_server>

    <random_number>
        <seed value="10"/>
    </random_number>

    <gui_only>
        <gui-settings-file value="contrib/ndn4ivc/traces/grid-map/settings.xml"/>
        <quit-on-end value="true"/>
        <start value="true"/>
        <tracker-interval value="0.1"/>
    </gui_only>

</configuration>
-->

<tripinfos xmlns:xsi="http://www.w3.org/2001/XMLSchema-instance" xsi:noNamespaceSchemaLocation="http://sumo.dlr.de/xsd/tripinfo_file.xsd">
    <tripinfo id="passenger2" depart="0.10" departLane="B0B1_0" departPos="5.10" departSpeed="0.00" departDelay="0.07" arrival="9.10" arrivalLane="B0B1_0" arrivalPos="85.60" arrivalSpeed="14.54" duration="9.00" routeLength="80.50" waitingTime="0.00" waitingCount="0" stopTime="0.00" timeLoss="3.45" rerouteNo="0" devices="tripinfo_passenger2" vType="passenger" speedFactor="1.05" vaporized=""/>
    <tripinfo id="passenger25" depart="3.00" departLane="C0C1_0" departPos="5.10" departSpeed="0.00" departDelay="2.58" arrival="13.40" arrivalLane="C0C1_0" arrivalPos="85.60" arrivalSpeed="10.94" duration="10.40" routeLength="80.50" waitingTime="0.00" waitingCount="0" stopTime="0.00" timeLoss="4.83" rerouteNo="0" devices="tripinfo_passenger25" vType="passenger" speedFactor="1.05" vaporized=""/>
    <tripinfo id="passenger18" depart="0.30" departLane="C0C1_0" departPos="5.10" departSpeed="0.00" departDelay="0.00" arrival="23.10" arrivalLane="C1C0_0" arrivalPos="85.60" arrivalSpeed="7.15" duration="22.80" routeLength="170.77" waitingTime="0.00" waitingCount="0" stopTime="0.00" timeLoss="10.27" rerouteNo="0" devices="tripinfo_passenger18" vType="passenger" speedFactor="1.05" vaporized=""/>
    <tripinfo id="passenger37" depart="0.60" departLane="D1D0_0" departPos="5.10" departSpeed="0.00" departDelay="-0.02" arrival="23.70" arrivalLane="D0C0_0" arrivalPos="89.60" arrivalSpeed="6.16" duration="23.10" routeLength="180.68" waitingTime="0.00" waitingCount="0" stopTime="0.00" timeLoss="8.08" rerouteNo="0" devices="tripinfo_passenger37" vType="passenger" speedFactor="0.89" vaporized=""/>
    <tripinfo id="passenger34" depart="5.30" departLane="B0B1_0" departPos="5.10" departSpeed="0.00" departDelay="4.73" arrival="24.20" arrivalLane="B1A1_0" arrivalPos="89.60" arrivalSpeed="14.12" duration="18.90" routeLength="184.29" waitingTime="0.00" waitingCount="0" stopTime="0.00" timeLoss="5.20" rerouteNo="0" devices="tripinfo_passenger34" vType="passenger" speedFactor="1.03" vaporized=""/>
    <tripinfo id="passenger19" depart="2.70" departLane="C1C0_0" departPos="5.10" departSpeed="0.00" departDelay="2.38" arrival="27.50" arrivalLane="C0D0_0" arrivalPos="89.60" arrivalSpeed="13.50" duration="24.80" routeLength="184.29" waitingTime="0.00" waitingCount="0" stopTime="0.00" timeLoss="10.44" rerouteNo="0" devices="tripinfo_passenger19" vType="passenger" speedFactor="0.98" vaporized=""/>
    <tripinfo id="passenger46" depart="5.70" departLane="C0C1_0" departPos="5.10" departSpeed="0.00" departDelay="4.93" arrival="30.00" arrivalLane="C1D1_0" arrivalPos="89.60" arrivalSpeed="5.06" duration="24.30" routeLength="179.13" waitingTime="0.00" waitingCount="0" stopTime="0.00" timeLoss="8.87" rerouteNo="0" devices="tripinfo_passenger46" vType="passenger" speedFactor="0.89" vaporized=""/>
    <tripinfo id="passenger39" depart="5.30" departLane="D0C0_0" departPos="5.10" departSpeed="0.00" departDelay="4.65" arrival="31.20" arrivalLane="C0D0_0" arrivalPos="89.60" arrivalSpeed="13.24" duration="25.90" routeLength="178.78" waitingTime="4.30" waitingCount="1" stopTime="0.00" timeLoss="11.48" rerouteNo="0" devices="tripinfo_passenger39" vType="passenger" speedFactor="0.96" vaporized=""/>
    <tripinfo id="passenger57" depart="15.60" departLane="B0A0_0" departPos="5.10" departSpeed="0.00" departDelay="14.65" arrival="31.90" arrivalLane="B0A0_0" arrivalPos="89.60" arrivalSpeed="5.72" duration="16.30" routeLength="84.50" waitingTime="0.00" waitingCount="0" stopTime="0.00" timeLoss="9.38" rerouteNo="0" devices="tripinfo_passenger57" vType="passenger" speedFactor="0.88" vaporized=""/>
    <tripinfo id="passenger7" depart="2.60" departLane="D0D1_0" departPos="5.10" departSpeed="0.00" departDelay="2.48" arrival="33.20" arrivalLane="D0C0_0" arrivalPos="89.60" arrivalSpeed="15.35" duration="30.60" routeLength="278.95" waitingTime="0.00" waitingCount="0" stopTime="0.00" timeLoss="11.34" rerouteNo="0" devices="tripinfo_passenger7" vType="passenger" speedFactor="1.11" vaporized=""/>
    <tripinfo id="passenger20" depart="9.90" departLane="C0B0_0" departPos="5.10" departSpeed="0.00" departDelay="9.57" arrival="33.70" arrivalLane="B0A0_0" arrivalPos="89.60" arrivalSpeed="8.22" duration="23.80" routeLength="184.50" waitingTime="0.00" waitingCount="0" stopTime="0.00" timeLoss="10.27" rerouteNo="0" devices="tripinfo_passenger20" vType="passenger" speedFactor="0.98" vaporized=""/>
    <tripinfo id="passenger14" depart="2.70" departLane="C0B0_0" departPos="5.10" departSpeed="0.00" departDelay="2.47" arrival="34.00" arrivalLane="B1A1_0" arrivalPos="89.60" arrivalSpeed="14.43" duration="31.30" routeLength="278.92" waitingTime="0.00" waitingCount="0" stopTime="0.00" timeLoss="10.52" rerouteNo="0" devices="tripinfo_passenger14" vType="passenger" speedFactor="1.04" vaporized=""/>
    <tripinfo id="passenger0" depart="0.00" departLane="D0D1_0" departPos="5.10" departSpeed="0.00" departDelay="0.00" arrival="37.40" arrivalLane="C0B0_0" arrivalPos="85.60" arrivalSpeed="11.06" duration="37.40" routeLength="378.95" waitingTime="0.00" waitingCount="0" stopTime="0.00" timeLoss="11.26" rerouteNo="0" devices="tripinfo_passenger0" vType="passenger" speedFactor="1.10" vaporized=""/>
    <tripinfo id="passenger47" depart="3.20" departLane="D1D0_0" departPos="5.10" departSpeed="0.00" departDelay="2.42" arrival="37.40" arrivalLane="D1C1_0" arrivalPos="89.60" arrivalSpeed="6.10" duration="34.20" routeLength="284.11" waitingTime="0.00" waitingCount="0" stopTime="0.00" timeLoss="12.76" rerouteNo="0" devices="tripinfo_passenger47" vType="passenger" speedFactor="1.03" vaporized=""/>
    <tripinfo id="passenger50" depart="0.80" departLane="B1C1_0" departPos="5.10" departSpeed="0.00" departDelay="-0.04" arrival="39.20" arrivalLane="D1C1_0" arrivalPos="89.60" arrivalSpeed="10.43" duration="38.40" routeLength="278.77" waitingTime="8.10" waitingCount="1" stopTime="0.00" timeLoss="18.92" rerouteNo="0" devices="tripinfo_passenger50" vType="passenger" speedFactor="1.08" vaporized=""/>
    <tripinfo id="passenger3" depart="0.10" departLane="C0B0_0" departPos="5.10" departSpeed="0.00" departDelay="0.05" arrival="39.40" arrivalLane="C1D1_0" arrivalPos="89.60" arrivalSpeed="13.77" duration="39.30" routeLength="373.76" waitingTime="1.50" waitingCount="1" stopTime="0.00" timeLoss="10.76" rerouteNo="1" devices="tripinfo_passenger3" vType="passenger" speedFactor="1.00" vaporized=""/>
    <tripinfo id="passenger5" depart="0.10" departLane="A1B1_0" departPos="5.10" departSpeed="0.00" departDelay="0.02" arrival="40.10" arrivalLane="A0A1_0" arrivalPos="93.60" arrivalSpeed="15.09" duration="40.00" routeLength="378.39" waitingTime="0.00" waitingCount="0" stopTime="0.00" timeLoss="12.55" rerouteNo="0" devices="tripinfo_passenger5" vType="passenger" speedFactor="1.09" vaporized=""/>
    <tripinfo id="passenger51" depart="19.90" departLane="C0B0_0" departPos="5.10" departSpeed="0.00" departDelay="19.05" arrival="41.20" arrivalLane="B0B1_0" arrivalPos="85.60" arrivalSpeed="8.80" duration="21.30" routeLength="175.13" waitingTime="0.00" waitingCount="0" stopTime="0.00" timeLoss="8.72" rerouteNo="0" devices="tripinfo_passenger51" vType="passenger" speedFactor="1.06" vaporized=""/>
    <tripinfo id="passenger13" depart="2.70" departLane="D0C0_0" departPos="5.10" departSpeed="0.00" departDelay="2.48" arrival="44.40" arrivalLane="A0A1_0" arrivalPos="93.60" arrivalSpeed="15.04" duration="41.70" routeLength="384.68" waitingTime="0.00" waitingCount="0" stopTime="0.00" timeLoss="15.67" rerouteNo="0" devices="tripinfo_passenger13" vType="passenger" speedFactor="1.08" vaporized=""/>
    <tripinfo id="passenger36" depart="0.60" departLane="A0A1_0" departPos="5.10" departSpeed="0.00" departDelay="0.00" arrival="44.90" arrivalLane="D1C1_0" arrivalPos="89.60" arrivalSpeed="14.21" duration="44.30" routeLength="478.95" waitingTime="0.00" waitingCount="0" stopTime="0.00" timeLoss="9.17" rerouteNo="0" devices="tripinfo_passenger36" vType="passenger" speedFactor="1.02" vaporized=""/>
    <tripinfo id="passenger44" depart="3.30" departLane="A1A0_0" departPos="5.10" departSpeed="0.00" departDelay="2.57" arrival="45.50" arrivalLane="B1C1_0" arrivalPos="85.60" arrivalSpeed="11.41" duration="42.20" routeLength="378.95" waitingTime="0.00" waitingCount="0" stopTime="0.00" timeLoss="7.63" rerouteNo="0" devices="tripinfo_passenger44" vType="passenger" speedFactor="0.83" vaporized=""/>
    <tripinfo id="passenger8" depart="2.70" departLane="B0B1_0" departPos="5.10" departSpeed="0.00" departDelay="2.57" arrival="46.80" arrivalLane="C0C1_0" arrivalPos="85.60" arrivalSpeed="5.96" duration="44.10" routeLength="360.03" waitingTime="0.00" waitingCount="0" stopTime="0.00" timeLoss="15.97" rerouteNo="0" devices="tripinfo_passenger8" vType="passenger" speedFactor="1.00" vaporized=""/>
    <tripinfo id="passenger10" depart="0.10" departLane="D0C0_0" departPos="5.10" departSpeed="0.00" departDelay="-0.07" arrival="47.00" arrivalLane="C1C0_0" arrivalPos="85.60" arrivalSpeed="12.42" duration="46.90" routeLength="269.40" waitingTime="16.00" waitingCount="1" stopTime="0.00" timeLoss="26.08" rerouteNo="0" devices="tripinfo_passenger10" vType="passenger" speedFactor="1.01" vaporized=""/>
    <tripinfo id="passenger48" depart="15.20" departLane="C0B0_0" departPos="5.10" departSpeed="0.00" departDelay="14.40" arrival="47.80" arrivalLane="A0A1_0" arrivalPos="93.60" arrivalSpeed="13.12" duration="32.60" routeLength="280.68" waitingTime="0.00" waitingCount="0" stopTime="0.00" timeLoss="10.70" rerouteNo="0" devices="tripinfo_passenger48" vType="passenger" speedFactor="0.95" vaporized=""/>
    <tripinfo id="passenger26" depart="0.40" departLane="C1B1_0" departPos="5.10" departSpeed="0.00" departDelay="-0.03" arrival="49.50" arrivalLane="C1D1_0" arrivalPos="89.60" arrivalSpeed="14.77" duration="49.10" routeLength="274.78" waitingTime="17.80" waitingCount="1" stopTime="0.00" timeLoss="29.55" rerouteNo="0" devices="tripinfo_passenger26" vType="passenger" speedFactor="1.07" vaporized=""/>
    <tripinfo id="passenger15" depart="5.40" departLane="C0B0_0" departPos="5.10" departSpeed="0.00" departDelay="5.15" arrival="51.10" arrivalLane="C1B1_0" arrivalPos="85.60" arrivalSpeed="8.16" duration="45.70" routeLength="360.04" waitingTime="1.40" waitingCount="1" stopTime="0.00" timeLoss="20.23" rerouteNo="1" devices="tripinfo_passenger15" vType="passenger" speedFactor="1.11" vaporized=""/>
    <tripinfo id="passenger53" depart="16.00" departLane="C1C0_0" departPos="5.10" departSpeed="0.00" departDelay="15.11" arrival="51.90" arrivalLane="D0C0_0" arrivalPos="89.60" arrivalSpeed="13.30" duration="35.90" routeLength="278.56" waitingTime="3.30" waitingCount="1" stopTime="0.00" timeLoss="13.27" rerouteNo="0" devices="tripinfo_passenger53" vType="passenger" speedFactor="0.97" vaporized=""/>
    <tripinfo id="passenger42" depart="2.60" departLane="C1D1_0" departPos="5.10" departSpeed="0.00" departDelay="1.90" arrival="53.20" arrivalLane="C0C1_0" arrivalPos="85.60" arrivalSpeed="14.25" duration="50.60" routeLength="368.83" waitingTime="7.40" waitingCount="1" stopTime="0.00" timeLoss="22.25" rerouteNo="0" devices="tripinfo_passenger42" vType="passenger" speedFactor="1.03" vaporized=""/>
    <tripinfo id="passenger11" depart="0.10" departLane="C1C0_0" departPos="5.10" departSpeed="0.00" departDelay="-0.08" arrival="56.70" arrivalLane="C1C0_0" arrivalPos="85.60" arrivalSpeed="14.39" duration="56.60" routeLength="459.02" waitingTime="3.80" waitingCount="1" stopTime="0.00" timeLoss="21.82" rerouteNo="1" devices="tripinfo_passenger11" vType="passenger" speedFactor="1.04" vaporized=""/>
    <tripinfo id="passenger32" depart="8.00" departLane="D0D1_0" departPos="5.10" departSpeed="0.00" departDelay="7.47" arrival="57.80" arrivalLane="B1C1_0" arrivalPos="85.60" arrivalSpeed="14.30" duration="49.80" routeLength="376.12" waitingTime="3.50" waitingCount="1" stopTime="0.00" timeLoss="21.75" rerouteNo="0" devices="tripinfo_passenger32" vType="passenger" speedFactor="1.03" vaporized=""/>
    <tripinfo id="passenger49" depart="2.90" departLane="B1A1_0" departPos="5.10" departSpeed="0.00" departDelay="2.08" arrival="58.10" arrivalLane="A0B0_0" arrivalPos="89.60" arrivalSpeed="8.78" duration="55.20" routeLength="283.18" waitingTime="6.50" waitingCount="1" stopTime="0.00" timeLoss="36.32" rerouteNo="0" devices="tripinfo_passenger49" vType="passenger" speedFactor="1.15" vaporized=""/>
    <tripinfo id="passenger59" depart="5.60" departLane="C1B1_0" departPos="5.10" departSpeed="0.00" departDelay="4.61" arrival="58.70" arrivalLane="C1D1_0" arrivalPos="89.60" arrivalSpeed="14.23" duration="53.10" routeLength="274.78" waitingTime="16.60" waitingCount="2" stopTime="0.00" timeLoss="32.92" rerouteNo="0" devices="tripinfo_passenger59" vType="passenger" speedFactor="1.03" vaporized=""/>
    <tripinfo id="passenger17" depart="5.40" departLane="A0B0_0" departPos="5.10" departSpeed="0.00" departDelay="5.12" arrival="58.70" arrivalLane="B0A0_0" arrivalPos="89.60" arrivalSpeed="11.24" duration="53.30" routeLength="178.78" waitingTime="19.90" waitingCount="3" stopTime="0.00" timeLoss="36.38" rerouteNo="0" devices="tripinfo_passenger17" vType="passenger" speedFactor="0.82" vaporized=""/>
    <tripinfo id="passenger30" depart="5.30" departLane="D0D1_0" departPos="5.10" departSpeed="0.00" departDelay="4.80" arrival="59.30" arrivalLane="B0B1_0" arrivalPos="85.60" arrivalSpeed="7.92" duration="54.00" routeLength="473.58" waitingTime="0.00" waitingCount="0" stopTime="0.00" timeLoss="18.73" rerouteNo="0" devices="tripinfo_passenger30" vType="passenger" speedFactor="1.03" vaporized=""/>
    <tripinfo id="passenger28" depart="5.40" departLane="C1C0_0" departPos="5.10" departSpeed="0.00" departDelay="4.93" arrival="65.30" arrivalLane="D1C1_0" arrivalPos="89.60" arrivalSpeed="12.85" duration="59.90" routeLength="363.67" waitingTime="5.50" waitingCount="2" stopTime="0.00" timeLoss="29.09" rerouteNo="0" devices="tripinfo_passenger28" vType="passenger" speedFactor="0.93" vaporized=""/>
    <tripinfo id="passenger40" depart="10.10" departLane="B0A0_0" departPos="5.10" departSpeed="0.00" departDelay="9.43" arrival="72.00" arrivalLane="B0B1_0" arrivalPos="85.60" arrivalSpeed="10.03" duration="61.90" routeLength="278.56" waitingTime="7.20" waitingCount="2" stopTime="0.00" timeLoss="34.62" rerouteNo="0" devices="tripinfo_passenger40" vType="passenger" speedFactor="0.80" vaporized=""/>
    <tripinfo id="passenger43" depart="0.70" departLane="A1A0_0" departPos="5.10" departSpeed="0.00" departDelay="-0.02" arrival="73.00" arrivalLane="B1C1_0" arrivalPos="85.60" arrivalSpeed="12.49" duration="72.30" routeLength="380.26" waitingTime="14.80" waitingCount="2" stopTime="0.00" timeLoss="39.53" rerouteNo="1" devices="tripinfo_passenger43" vType="passenger" speedFactor="0.91" vaporized=""/>
    <tripinfo id="passenger58" depart="5.50" departLane="B1A1_0" departPos="5.10" departSpeed="0.00" departDelay="4.53" arrival="80.40" arrivalLane="B1B0_0" arrivalPos="85.60" arrivalSpeed="8.11" duration="74.90" routeLength="273.40" waitingTime="32.60" waitingCount="1" stopTime="0.00" timeLoss="51.86" rerouteNo="0" devices="tripinfo_passenger58" vType="passenger" speedFactor="0.93" vaporized=""/>
    <tripinfo id="passenger9" depart="0.10" departLane="B0A0_0" departPos="5.10" departSpeed="0.00" departDelay="-0.05" arrival="81.60" arrivalLane="C1D1_0" arrivalPos="89.60" arrivalSpeed="14.56" duration="81.50" routeLength="477.19" waitingTime="13.90" waitingCount="2" stopTime="0.00" timeLoss="46.61" rerouteNo="1" devices="tripinfo_passenger9" vType="passenger" speedFactor="1.05" vaporized=""/>
    <tripinfo id="passenger54" depart="12.80" departLane="B0A0_0" departPos="5.10" departSpeed="0.00" departDelay="11.90" arrival="83.50" arrivalLane="B1A1_0" arrivalPos="89.60" arrivalSpeed="12.73" duration="70.70" routeLength="382.35" waitingTime="3.00" waitingCount="1" stopTime="0.00" timeLoss="38.18" rerouteNo="0" devices="tripinfo_passenger54" vType="passenger" speedFactor="0.92" vaporized=""/>
    <tripinfo id="passenger41" depart="20.80" departLane="B0B1_0" departPos="5.10" departSpeed="0.00" departDelay="20.12" arrival="84.10" arrivalLane="B1B0_0" arrivalPos="85.60" arrivalSpeed="8.61" duration="63.30" routeLength="170.77" waitingTime="30.80" waitingCount="2" stopTime="0.00" timeLoss="48.91" rerouteNo="0" devices="tripinfo_passenger41" vType="passenger" speedFactor="0.92" vaporized=""/>
    <tripinfo id="passenger23" depart="2.70" departLane="B0A0_0" departPos="5.10" departSpeed="0.00" departDelay="2.32" arrival="85.20" arrivalLane="C1C0_0" arrivalPos="85.60" arrivalSpeed="14.07" duration="82.50" routeLength="467.82" waitingTime="10.20" waitingCount="1" stopTime="0.00" timeLoss="46.27" rerouteNo="1" devices="tripinfo_passenger23" vType="passenger" speedFactor="1.02" vaporized=""/>
    <tripinfo id="passenger12" depart="0.20" departLane="A0B0_0" departPos="5.10" departSpeed="0.00" departDelay="0.00" arrival="85.50" arrivalLane="D1D0_0" arrivalPos="93.60" arrivalSpeed="12.56" duration="85.30" routeLength="479.10" waitingTime="25.70" waitingCount="2" stopTime="0.00" timeLoss="45.01" rerouteNo="1" devices="tripinfo_passenger12" vType="passenger" speedFactor="0.91" vaporized=""/>
    <tripinfo id="passenger6" depart="0.10" departLane="B1B0_0" departPos="5.10" departSpeed="0.00" departDelay="0.00" arrival="85.70" arrivalLane="B0B1_0" arrivalPos="85.60" arrivalSpeed="9.48" duration="85.60" routeLength="170.77" waitingTime="61.60" waitingCount="1" stopTime="0.00" timeLoss="71.31" rerouteNo="0" devices="tripinfo_passenger6" vType="passenger" speedFactor="0.93" vaporized=""/>
    <tripinfo id="passenger21" depart="0.30" departLane="B1A1_0" departPos="5.10" departSpeed="0.00" departDelay="-0.05" arrival="87.00" arrivalLane="B0A0_0" arrivalPos="89.60" arrivalSpeed="14.97" duration="86.70" routeLength="372.03" waitingTime="38.90" waitingCount="2" stopTime="0.00" timeLoss="59.59" rerouteNo="0" devices="tripinfo_passenger21" vType="passenger" speedFactor="1.08" vaporized=""/>
    <tripinfo id="passenger24" depart="5.40" departLane="B0A0_0" departPos="5.10" departSpeed="0.00" departDelay="5.00" arrival="87.70" arrivalLane="C1C0_0" arrivalPos="85.60" arrivalSpeed="14.63" duration="82.30" routeLength="467.82" waitingTime="8.60" waitingCount="1" stopTime="0.00" timeLoss="47.32" rerouteNo="1" devices="tripinfo_passenger24" vType="passenger" speedFactor="1.05" vaporized=""/>
    <tripinfo id="passenger31" depart="36.30" departLane="A0B0_0" departPos="5.10" departSpeed="0.00" departDelay="35.78" arrival="87.90" arrivalLane="B1C1_0" arrivalPos="85.60" arrivalSpeed="13.05" duration="51.60" routeLength="278.92" waitingTime="0.00" waitingCount="0" stopTime="0.00" timeLoss="28.57" rerouteNo="1" devices="tripinfo_passenger31" vType="passenger" speedFactor="0.94" vaporized=""/>
    <tripinfo id="passenger56" depart="38.50" departLane="B0B1_0" departPos="5.10" departSpeed="0.00" departDelay="37.56" arrival="89.70" arrivalLane="D0C0_0" arrivalPos="89.60" arrivalSpeed="14.72" duration="51.20" routeLength="467.49" waitingTime="0.00" waitingCount="0" stopTime="0.00" timeLoss="18.16" rerouteNo="0" devices="tripinfo_passenger56" vType="passenger" speedFactor="1.07" vaporized=""/>
    <tripinfo id="passenger52" depart="32.60" departLane="B0B1_0" departPos="5.10" departSpeed="0.00" departDelay="31.73" arrival="90.30" arrivalLane="B1B0_0" arrivalPos="85.60" arrivalSpeed="8.60" duration="57.70" routeLength="170.77" waitingTime="21.40" waitingCount="2" stopTime="0.00" timeLoss="43.64" rerouteNo="0" devices="tripinfo_passenger52" vType="passenger" speedFactor="0.95" vaporized=""/>
    <tripinfo id="passenger27" depart="0.40" departLane="C0D0_0" departPos="5.10" departSpeed="0.00" departDelay="-0.05" arrival="91.80" arrivalLane="B1B0_0" arrivalPos="85.60" arrivalSpeed="10.85" duration="91.40" routeLength="463.67" waitingTime="16.20" waitingCount="2" stopTime="0.00" timeLoss="47.23" rerouteNo="0" devices="tripinfo_passenger27" vType="passenger" speedFactor="0.81" vaporized=""/>
    <tripinfo id="passenger35" depart="40.30" departLane="A0B0_0" departPos="5.10" departSpeed="0.00" departDelay="39.72" arrival="93.20" arrivalLane="B1B0_0" arrivalPos="85.60" arrivalSpeed="12.57" duration="52.90" routeLength="274.56" waitingTime="0.00" waitingCount="0" stopTime="0.00" timeLoss="29.79" rerouteNo="0" devices="tripinfo_passenger35" vType="passenger" speedFactor="0.93" vaporized=""/>
    <tripinfo id="passenger4" depart="0.10" departLane="D1C1_0" departPos="5.10" departSpeed="0.00" departDelay="0.03" arrival="95.50" arrivalLane="B0A0_0" arrivalPos="89.60" arrivalSpeed="12.62" duration="95.40" routeLength="382.92" waitingTime="31.60" waitingCount="3" stopTime="0.00" timeLoss="63.45" rerouteNo="0" devices="tripinfo_passenger4" vType="passenger" speedFactor="0.91" vaporized=""/>
    <tripinfo id="passenger16" depart="2.80" departLane="A0B0_0" departPos="5.10" departSpeed="0.00" departDelay="2.53" arrival="99.50" arrivalLane="D0D1_0" arrivalPos="93.60" arrivalSpeed="13.12" duration="96.70" routeLength="578.68" waitingTime="24.30" waitingCount="3" stopTime="0.00" timeLoss="48.92" rerouteNo="1" devices="tripinfo_passenger16" vType="passenger" speedFactor="0.95" vaporized=""/>
    <tripinfo id="passenger45" depart="3.00" departLane="C1B1_0" departPos="5.10" departSpeed="0.00" departDelay="2.25" arrival="100.50" arrivalLane="A0A1_0" arrivalPos="93.60" arrivalSpeed="14.74" duration="97.50" routeLength="375.10" waitingTime="42.50" waitingCount="2" stopTime="0.00" timeLoss="70.29" rerouteNo="0" devices="tripinfo_passenger45" vType="passenger" speedFactor="1.07" vaporized=""/>
    <tripinfo id="passenger29" depart="33.70" departLane="A0B0_0" departPos="5.10" departSpeed="0.00" departDelay="33.22" arrival="106.40" arrivalLane="D1D0_0" arrivalPos="93.60" arrivalSpeed="11.48" duration="72.70" routeLength="479.10" waitingTime="1.00" waitingCount="1" stopTime="0.00" timeLoss="28.92" rerouteNo="1" devices="tripinfo_passenger29" vType="passenger" speedFactor="0.83" vaporized=""/>
    <tripinfo id="passenger1" depart="0.00" departLane="C1D1_0" departPos="5.10" departSpeed="0.00" departDelay="-0.02" arrival="107.60" arrivalLane="A0A1_0" arrivalPos="93.60" arrivalSpeed="13.20" duration="107.60" routeLength="573.37" waitingTime="20.30" waitingCount="2" stopTime="0.00" timeLoss="61.57" rerouteNo="0" devices="tripinfo_passenger1" vType="passenger" speedFactor="0.96" vaporized=""/>
    <tripinfo id="passenger33" depart="2.70" departLane="B1B0_0" departPos="5.10" departSpeed="0.00" departDelay="2.15" arrival="113.80" arrivalLane="D1C1_0" arrivalPos="89.60" arrivalSpeed="14.33" duration="111.10" routeLength="463.67" waitingTime="56.20" waitingCount="1" stopTime="0.00" timeLoss="76.26" rerouteNo="1" devices="tripinfo_passenger33" vType="passenger" speedFactor="1.03" vaporized=""/>
    <tripinfo id="passenger38" depart="53.10" departLane="A0B0_0" departPos="5.10" departSpeed="0.00" departDelay="52.47" arrival="118.70" arrivalLane="D0C0_0" arrivalPos="89.60" arrivalSpeed="15.85" duration="65.60" routeLength="571.61" waitingTime="0.00" waitingCount="0" stopTime="0.00" timeLoss="26.22" rerouteNo="1" devices="tripinfo_passenger38" vType="passenger" speedFactor="1.15" vaporized=""/>
    <tripinfo id="acc0" depart="0.00" departLane="B0C0_0" departPos="5.10" departSpeed="0.00" departDelay="0.00" arrival="177.00" arrivalLane="D0D1_0" arrivalPos="93.60" arrivalSpeed="16.68" duration="177.00" routeLength="285.84" waitingTime="0.00" waitingCount="0" stopTime="150.10" timeLoss="9.23" rerouteNo="0" devices="tripinfo_acc0" vType="passenger" speedFactor="1.20" vaporized=""/>
    <tripinfo id="passenger55" depart="156.50" departLane="B0C0_0" departPos="5.10" departSpeed="0.00" departDelay="155.58" arrival="177.20" arrivalLane="C0C1_0" arrivalPos="85.60" arrivalSpeed="12.03" duration="20.70" routeLength="180.29" waitingTime="0.00" waitingCount="0" stopTime="0.00" timeLoss="4.86" rerouteNo="0" devices="tripinfo_passenger55" vType="passenger" speedFactor="0.87" vaporized=""/>
    <tripinfo id="passenger22" depart="2.70" departLane="B0C0_0" departPos="5.10" departSpeed="0.00" departDelay="2.33" arrival="192.40" arrivalLane="B1A1_0" arrivalPos="89.60" arrivalSpeed="13.81" duration="189.70" routeLength="369.20" waitingTime="147.70" waitingCount="1" stopTime="0.00" timeLoss="160.76" rerouteNo="0" devices="tripinfo_passenger22" vType="passenger" speedFactor="1.00" vaporized=""/>
</tripinfos>
