<?xml version="1.0" encoding="UTF-8"?>

<!-- generated on Thu 24 Jun 2021 01:00:31 PM -03 by Eclipse SUMO GUI Version 1.1.0
<configuration xmlns:xsi="http://www.w3.org/2001/XMLSchema-instance" xsi:noNamespaceSchemaLocation="http://sumo.dlr.de/xsd/sumoConfiguration.xsd">

    <input>
        <net-file value="map.net.xml"/>
        <route-files value="passenger_routes.rou.xml,passenger_accident.rou.xml"/>
    </input>

    <output>
        <emission-output value="sumo-output.emission.xml"/>
        <tripinfo-output value="sumo-output.tripinfo.xml"/>
    </output>

    <time>
        <begin value="0"/>
        <end value="3600"/>
        <step-length value="0.1"/>
    </time>

    <gui_only>
        <gui-settings-file value="settings.xml"/>
        <tracker-interval value="0.1"/>
    </gui_only>

</configuration>
-->

<emission-export xmlns:xsi="http://www.w3.org/2001/XMLSchema-instance" xsi:noNamespaceSchemaLocation="http://sumo.dlr.de/xsd/emission_file.xsd">
</emission-export>
