<?xml version="1.0" encoding="UTF-8"?>

<!-- generated on Sun 02 May 2021 01:45:08 PM -03 by Eclipse SUMO GUI Version 1.1.0
<configuration xmlns:xsi="http://www.w3.org/2001/XMLSchema-instance" xsi:noNamespaceSchemaLocation="http://sumo.dlr.de/xsd/sumoConfiguration.xsd">

    <input>
        <net-file value="contrib/ndn4ivc/traces/intersection/map.net.xml"/>
        <route-files value="contrib/ndn4ivc/traces/intersection/passenger_routes.rou.xml,contrib/ndn4ivc/traces/intersection/emergency_routes.rou.xml,contrib/ndn4ivc/traces/intersection/passenger_accident.xml"/>
    </input>

    <output>
        <emission-output value="contrib/ndn4ivc/traces/intersection/sumo-output.emission.xml"/>
        <tripinfo-output value="contrib/ndn4ivc/traces/intersection/sumo-output.tripinfo.xml"/>
    </output>

    <time>
        <begin value="0"/>
        <end value="300"/>
        <step-length value="0.100000"/>
    </time>

    <report>
        <verbose value="true"/>
        <error-log value="contrib/ndn4ivc/traces/intersection/SumoError.log"/>
        <no-step-log value="true"/>
    </report>

    <traci_server>
        <remote-port value="3419"/>
    </traci_server>

    <random_number>
        <seed value="10"/>
    </random_number>

    <gui_only>
        <gui-settings-file value="contrib/ndn4ivc/traces/intersection/settings.xml"/>
        <quit-on-end value="true"/>
        <start value="true"/>
        <tracker-interval value="0.1"/>
    </gui_only>

</configuration>
-->

<tripinfos xmlns:xsi="http://www.w3.org/2001/XMLSchema-instance" xsi:noNamespaceSchemaLocation="http://sumo.dlr.de/xsd/tripinfo_file.xsd">
    <tripinfo id="passenger0" depart="0.00" departLane="A1B1_0" departPos="5.10" departSpeed="0.00" departDelay="0.00" arrival="20.50" arrivalLane="B1C1_0" arrivalPos="10.41" arrivalSpeed="15.27" duration="20.50" routeLength="255.79" waitingTime="0.00" waitingCount="0" stopTime="0.00" timeLoss="3.74" rerouteNo="0" devices="tripinfo_passenger0" vType="passenger" speedFactor="1.10" vaporized=""/>
    <tripinfo id="acc0" depart="2.60" departLane="A1B1_0" departPos="5.10" departSpeed="0.00" departDelay="2.60" arrival="97.70" arrivalLane="B1C1_0" arrivalPos="10.41" arrivalSpeed="12.81" duration="95.10" routeLength="255.79" waitingTime="0.00" waitingCount="0" stopTime="70.10" timeLoss="9.65" rerouteNo="0" devices="tripinfo_acc0" vType="passenger" speedFactor="1.20" vaporized=""/>
    <tripinfo id="passenger2" depart="10.40" departLane="A1B1_0" departPos="5.10" departSpeed="0.00" departDelay="8.80" arrival="99.00" arrivalLane="B1C1_1" arrivalPos="10.41" arrivalSpeed="13.74" duration="88.60" routeLength="255.79" waitingTime="31.30" waitingCount="76" stopTime="0.00" timeLoss="70.03" rerouteNo="0" devices="tripinfo_passenger2" vType="passenger" speedFactor="1.00" vaporized=""/>
    <tripinfo id="acc1" depart="5.20" departLane="A1B1_0" departPos="5.10" departSpeed="0.00" departDelay="5.20" arrival="101.40" arrivalLane="B1C1_1" arrivalPos="10.41" arrivalSpeed="12.58" duration="96.20" routeLength="255.79" waitingTime="0.00" waitingCount="0" stopTime="70.10" timeLoss="8.55" rerouteNo="0" devices="tripinfo_acc1" vType="passenger" speedFactor="1.05" vaporized=""/>
    <tripinfo id="passenger1" depart="7.80" departLane="A1B1_0" departPos="5.10" departSpeed="0.00" departDelay="7.00" arrival="101.60" arrivalLane="B1C1_0" arrivalPos="10.41" arrivalSpeed="13.32" duration="93.80" routeLength="255.79" waitingTime="63.00" waitingCount="1" stopTime="0.00" timeLoss="74.58" rerouteNo="0" devices="tripinfo_passenger1" vType="passenger" speedFactor="0.96" vaporized=""/>
    <tripinfo id="passenger3" depart="13.00" departLane="A1B1_0" departPos="5.10" departSpeed="0.00" departDelay="10.60" arrival="102.80" arrivalLane="B1C1_1" arrivalPos="10.41" arrivalSpeed="12.56" duration="89.80" routeLength="255.79" waitingTime="24.90" waitingCount="2" stopTime="0.00" timeLoss="69.49" rerouteNo="0" devices="tripinfo_passenger3" vType="passenger" speedFactor="0.91" vaporized=""/>
    <tripinfo id="passenger6" depart="20.90" departLane="A1B1_0" departPos="5.10" departSpeed="0.00" departDelay="16.10" arrival="102.90" arrivalLane="B1C1_0" arrivalPos="10.41" arrivalSpeed="14.42" duration="82.00" routeLength="255.79" waitingTime="24.30" waitingCount="1" stopTime="0.00" timeLoss="65.43" rerouteNo="0" devices="tripinfo_passenger6" vType="passenger" speedFactor="1.11" vaporized=""/>
    <tripinfo id="passenger4" depart="15.60" departLane="A1B1_0" departPos="5.10" departSpeed="0.00" departDelay="12.40" arrival="104.10" arrivalLane="B1C1_1" arrivalPos="10.41" arrivalSpeed="14.11" duration="88.50" routeLength="255.79" waitingTime="23.80" waitingCount="1" stopTime="0.00" timeLoss="71.59" rerouteNo="0" devices="tripinfo_passenger4" vType="passenger" speedFactor="1.09" vaporized=""/>
    <tripinfo id="passenger7" depart="23.50" departLane="A1B1_0" departPos="5.10" departSpeed="0.00" departDelay="17.90" arrival="104.20" arrivalLane="B1C1_0" arrivalPos="10.41" arrivalSpeed="13.93" duration="80.70" routeLength="255.79" waitingTime="23.70" waitingCount="1" stopTime="0.00" timeLoss="62.26" rerouteNo="0" devices="tripinfo_passenger7" vType="passenger" speedFactor="1.00" vaporized=""/>
    <tripinfo id="passenger8" depart="26.10" departLane="A1B1_0" departPos="5.10" departSpeed="0.00" departDelay="19.70" arrival="105.40" arrivalLane="B1C1_0" arrivalPos="10.41" arrivalSpeed="14.53" duration="79.30" routeLength="255.79" waitingTime="23.30" waitingCount="1" stopTime="0.00" timeLoss="61.83" rerouteNo="0" devices="tripinfo_passenger8" vType="passenger" speedFactor="1.05" vaporized=""/>
    <tripinfo id="passenger5" depart="18.20" departLane="A1B1_0" departPos="5.10" departSpeed="0.00" departDelay="14.20" arrival="105.50" arrivalLane="B1C1_1" arrivalPos="10.41" arrivalSpeed="12.83" duration="87.30" routeLength="255.79" waitingTime="23.20" waitingCount="1" stopTime="0.00" timeLoss="67.40" rerouteNo="0" devices="tripinfo_passenger5" vType="passenger" speedFactor="0.93" vaporized=""/>
    <tripinfo id="passenger10" depart="31.40" departLane="A1B1_0" departPos="5.10" departSpeed="0.00" departDelay="23.40" arrival="106.70" arrivalLane="B1C1_0" arrivalPos="10.41" arrivalSpeed="14.33" duration="75.30" routeLength="255.79" waitingTime="22.70" waitingCount="1" stopTime="0.00" timeLoss="57.54" rerouteNo="0" devices="tripinfo_passenger10" vType="passenger" speedFactor="1.04" vaporized=""/>
    <tripinfo id="passenger9" depart="28.70" departLane="A1B1_0" departPos="5.10" departSpeed="0.00" departDelay="21.50" arrival="106.90" arrivalLane="B1C1_1" arrivalPos="10.41" arrivalSpeed="13.90" duration="78.20" routeLength="255.79" waitingTime="22.60" waitingCount="1" stopTime="0.00" timeLoss="59.88" rerouteNo="0" devices="tripinfo_passenger9" vType="passenger" speedFactor="1.01" vaporized=""/>
    <tripinfo id="passenger12" depart="36.70" departLane="A1B1_0" departPos="5.10" departSpeed="0.00" departDelay="27.10" arrival="108.20" arrivalLane="B1C1_1" arrivalPos="10.41" arrivalSpeed="15.02" duration="71.50" routeLength="255.79" waitingTime="22.10" waitingCount="1" stopTime="0.00" timeLoss="54.42" rerouteNo="0" devices="tripinfo_passenger12" vType="passenger" speedFactor="1.08" vaporized=""/>
    <tripinfo id="passenger11" depart="34.00" departLane="A1B1_0" departPos="5.10" departSpeed="0.00" departDelay="25.20" arrival="108.30" arrivalLane="B1C1_0" arrivalPos="10.41" arrivalSpeed="12.48" duration="74.30" routeLength="255.79" waitingTime="22.20" waitingCount="1" stopTime="0.00" timeLoss="53.96" rerouteNo="0" devices="tripinfo_passenger11" vType="passenger" speedFactor="0.91" vaporized=""/>
    <tripinfo id="passenger13" depart="39.30" departLane="A1B1_0" departPos="5.10" departSpeed="0.00" departDelay="28.90" arrival="109.70" arrivalLane="B1C1_0" arrivalPos="10.41" arrivalSpeed="14.45" duration="70.40" routeLength="255.79" waitingTime="21.70" waitingCount="1" stopTime="0.00" timeLoss="52.62" rerouteNo="0" devices="tripinfo_passenger13" vType="passenger" speedFactor="1.04" vaporized=""/>
    <tripinfo id="passenger14" depart="41.90" departLane="A1B1_0" departPos="5.10" departSpeed="0.00" departDelay="30.70" arrival="111.10" arrivalLane="B1C1_0" arrivalPos="10.41" arrivalSpeed="15.47" duration="69.20" routeLength="255.79" waitingTime="25.20" waitingCount="1" stopTime="0.00" timeLoss="52.65" rerouteNo="0" devices="tripinfo_passenger14" vType="passenger" speedFactor="1.11" vaporized=""/>
    <tripinfo id="passenger17" depart="49.80" departLane="A1B1_0" departPos="5.10" departSpeed="0.00" departDelay="36.20" arrival="112.50" arrivalLane="B1C1_0" arrivalPos="10.41" arrivalSpeed="14.65" duration="62.70" routeLength="255.79" waitingTime="24.40" waitingCount="1" stopTime="0.00" timeLoss="45.18" rerouteNo="0" devices="tripinfo_passenger17" vType="passenger" speedFactor="1.05" vaporized=""/>
    <tripinfo id="passenger15" depart="44.60" departLane="A1B1_0" departPos="5.10" departSpeed="0.00" departDelay="32.60" arrival="114.20" arrivalLane="B1C1_0" arrivalPos="10.41" arrivalSpeed="13.21" duration="69.60" routeLength="255.79" waitingTime="25.00" waitingCount="3" stopTime="0.00" timeLoss="50.17" rerouteNo="0" devices="tripinfo_passenger15" vType="passenger" speedFactor="0.95" vaporized=""/>
    <tripinfo id="passenger16" depart="47.20" departLane="A1B1_0" departPos="5.10" departSpeed="0.00" departDelay="34.40" arrival="116.40" arrivalLane="B1C1_0" arrivalPos="10.41" arrivalSpeed="11.36" duration="69.20" routeLength="255.79" waitingTime="24.00" waitingCount="1" stopTime="0.00" timeLoss="46.60" rerouteNo="0" devices="tripinfo_passenger16" vType="passenger" speedFactor="0.82" vaporized=""/>
    <tripinfo id="passenger18" depart="52.40" departLane="A1B1_0" departPos="5.10" departSpeed="0.00" departDelay="38.00" arrival="117.90" arrivalLane="B1C1_0" arrivalPos="10.41" arrivalSpeed="13.58" duration="65.50" routeLength="255.79" waitingTime="28.20" waitingCount="1" stopTime="0.00" timeLoss="46.60" rerouteNo="0" devices="tripinfo_passenger18" vType="passenger" speedFactor="0.98" vaporized=""/>
    <tripinfo id="passenger20" depart="57.60" departLane="A1B1_0" departPos="5.10" departSpeed="0.00" departDelay="41.60" arrival="119.20" arrivalLane="B1C1_0" arrivalPos="10.41" arrivalSpeed="15.01" duration="61.60" routeLength="255.79" waitingTime="27.20" waitingCount="1" stopTime="0.00" timeLoss="44.53" rerouteNo="0" devices="tripinfo_passenger20" vType="passenger" speedFactor="1.08" vaporized=""/>
    <tripinfo id="passenger19" depart="55.00" departLane="A1B1_0" departPos="5.10" departSpeed="0.00" departDelay="39.80" arrival="120.80" arrivalLane="B1C1_0" arrivalPos="10.41" arrivalSpeed="13.67" duration="65.80" routeLength="255.79" waitingTime="28.00" waitingCount="3" stopTime="0.00" timeLoss="47.01" rerouteNo="0" devices="tripinfo_passenger19" vType="passenger" speedFactor="0.98" vaporized=""/>
    <tripinfo id="passenger21" depart="60.30" departLane="A1B1_0" departPos="5.10" departSpeed="0.00" departDelay="43.50" arrival="122.20" arrivalLane="B1C1_0" arrivalPos="10.41" arrivalSpeed="13.92" duration="61.90" routeLength="255.79" waitingTime="26.40" waitingCount="1" stopTime="0.00" timeLoss="43.48" rerouteNo="0" devices="tripinfo_passenger21" vType="passenger" speedFactor="1.00" vaporized=""/>
    <tripinfo id="passenger23" depart="65.50" departLane="A1B1_0" departPos="5.10" departSpeed="0.00" departDelay="47.10" arrival="123.60" arrivalLane="B1C1_0" arrivalPos="10.41" arrivalSpeed="14.63" duration="58.10" routeLength="255.79" waitingTime="23.80" waitingCount="1" stopTime="0.00" timeLoss="40.53" rerouteNo="0" devices="tripinfo_passenger23" vType="passenger" speedFactor="1.05" vaporized=""/>
    <tripinfo id="passenger22" depart="62.90" departLane="A1B1_0" departPos="5.10" departSpeed="0.00" departDelay="45.30" arrival="125.10" arrivalLane="B1C1_0" arrivalPos="10.41" arrivalSpeed="14.09" duration="62.20" routeLength="255.79" waitingTime="29.00" waitingCount="1" stopTime="0.00" timeLoss="44.04" rerouteNo="0" devices="tripinfo_passenger22" vType="passenger" speedFactor="1.02" vaporized=""/>
    <tripinfo id="emergency0" depart="71.00" departLane="A1B1_0" departPos="6.60" departSpeed="0.00" departDelay="51.00" arrival="125.90" arrivalLane="B1C1_1" arrivalPos="10.41" arrivalSpeed="13.80" duration="54.90" routeLength="254.29" waitingTime="22.40" waitingCount="1" stopTime="0.00" timeLoss="36.53" rerouteNo="0" devices="tripinfo_emergency0" vType="emergency" speedFactor="1.00" vaporized=""/>
    <tripinfo id="passenger24" depart="68.10" departLane="A1B1_0" departPos="5.10" departSpeed="0.00" departDelay="48.90" arrival="126.50" arrivalLane="B1C1_0" arrivalPos="10.41" arrivalSpeed="14.41" duration="58.40" routeLength="255.79" waitingTime="21.80" waitingCount="1" stopTime="0.00" timeLoss="40.77" rerouteNo="0" devices="tripinfo_passenger24" vType="passenger" speedFactor="1.05" vaporized=""/>
    <tripinfo id="passenger26" depart="76.20" departLane="A1B1_0" departPos="5.10" departSpeed="0.00" departDelay="55.40" arrival="129.00" arrivalLane="B1C1_0" arrivalPos="10.41" arrivalSpeed="11.30" duration="52.80" routeLength="255.79" waitingTime="17.80" waitingCount="1" stopTime="0.00" timeLoss="30.16" rerouteNo="0" devices="tripinfo_passenger26" vType="passenger" speedFactor="0.81" vaporized=""/>
    <tripinfo id="passenger25" depart="73.60" departLane="A1B1_0" departPos="5.10" departSpeed="0.00" departDelay="53.60" arrival="129.90" arrivalLane="B1C1_1" arrivalPos="10.41" arrivalSpeed="14.79" duration="56.30" routeLength="255.79" waitingTime="20.30" waitingCount="2" stopTime="0.00" timeLoss="38.97" rerouteNo="0" devices="tripinfo_passenger25" vType="passenger" speedFactor="1.07" vaporized=""/>
    <tripinfo id="passenger28" depart="81.50" departLane="A1B1_0" departPos="5.10" departSpeed="0.00" departDelay="59.10" arrival="132.10" arrivalLane="B1C1_0" arrivalPos="10.41" arrivalSpeed="11.58" duration="50.60" routeLength="255.79" waitingTime="12.10" waitingCount="24" stopTime="0.00" timeLoss="28.52" rerouteNo="0" devices="tripinfo_passenger28" vType="passenger" speedFactor="0.83" vaporized=""/>
    <tripinfo id="passenger29" depart="84.10" departLane="A1B1_0" departPos="5.10" departSpeed="0.00" departDelay="60.90" arrival="132.50" arrivalLane="B1C1_1" arrivalPos="10.41" arrivalSpeed="14.25" duration="48.40" routeLength="255.79" waitingTime="10.50" waitingCount="1" stopTime="0.00" timeLoss="30.39" rerouteNo="0" devices="tripinfo_passenger29" vType="passenger" speedFactor="1.03" vaporized=""/>
    <tripinfo id="passenger27" depart="78.80" departLane="A1B1_0" departPos="5.10" departSpeed="0.00" departDelay="57.20" arrival="133.60" arrivalLane="B1C1_0" arrivalPos="10.41" arrivalSpeed="12.98" duration="54.80" routeLength="255.79" waitingTime="14.50" waitingCount="2" stopTime="0.00" timeLoss="35.07" rerouteNo="0" devices="tripinfo_passenger27" vType="passenger" speedFactor="0.93" vaporized=""/>
    <tripinfo id="passenger30" depart="86.70" departLane="A1B1_0" departPos="5.10" departSpeed="0.00" departDelay="62.70" arrival="134.90" arrivalLane="B1C1_1" arrivalPos="10.41" arrivalSpeed="13.06" duration="48.20" routeLength="255.79" waitingTime="7.20" waitingCount="33" stopTime="0.00" timeLoss="28.62" rerouteNo="0" devices="tripinfo_passenger30" vType="passenger" speedFactor="0.94" vaporized=""/>
    <tripinfo id="passenger31" depart="89.30" departLane="A1B1_0" departPos="5.10" departSpeed="0.00" departDelay="64.50" arrival="135.00" arrivalLane="B1C1_0" arrivalPos="10.41" arrivalSpeed="14.31" duration="45.70" routeLength="255.79" waitingTime="6.60" waitingCount="1" stopTime="0.00" timeLoss="27.82" rerouteNo="0" devices="tripinfo_passenger31" vType="passenger" speedFactor="1.03" vaporized=""/>
    <tripinfo id="passenger32" depart="92.00" departLane="A1B1_0" departPos="5.10" departSpeed="0.00" departDelay="66.40" arrival="136.40" arrivalLane="B1C1_1" arrivalPos="10.41" arrivalSpeed="14.37" duration="44.40" routeLength="255.79" waitingTime="2.90" waitingCount="29" stopTime="0.00" timeLoss="26.52" rerouteNo="0" devices="tripinfo_passenger32" vType="passenger" speedFactor="1.03" vaporized=""/>
    <tripinfo id="passenger33" depart="94.70" departLane="A1B1_0" departPos="5.10" departSpeed="0.00" departDelay="68.30" arrival="136.50" arrivalLane="B1C1_0" arrivalPos="10.41" arrivalSpeed="14.20" duration="41.80" routeLength="255.79" waitingTime="2.50" waitingCount="1" stopTime="0.00" timeLoss="23.78" rerouteNo="0" devices="tripinfo_passenger33" vType="passenger" speedFactor="1.03" vaporized=""/>
    <tripinfo id="passenger35" depart="100.00" departLane="A1B1_0" departPos="5.10" departSpeed="0.00" departDelay="72.00" arrival="137.90" arrivalLane="B1C1_0" arrivalPos="10.41" arrivalSpeed="14.16" duration="37.90" routeLength="255.79" waitingTime="0.00" waitingCount="0" stopTime="0.00" timeLoss="19.90" rerouteNo="0" devices="tripinfo_passenger35" vType="passenger" speedFactor="1.02" vaporized=""/>
    <tripinfo id="passenger34" depart="97.30" departLane="A1B1_0" departPos="5.10" departSpeed="0.00" departDelay="70.10" arrival="138.00" arrivalLane="B1C1_1" arrivalPos="10.41" arrivalSpeed="12.92" duration="40.70" routeLength="255.79" waitingTime="1.60" waitingCount="16" stopTime="0.00" timeLoss="20.88" rerouteNo="0" devices="tripinfo_passenger34" vType="passenger" speedFactor="0.93" vaporized=""/>
    <tripinfo id="passenger37" depart="105.30" departLane="A1B1_0" departPos="5.10" departSpeed="0.00" departDelay="75.70" arrival="139.30" arrivalLane="B1C1_0" arrivalPos="10.41" arrivalSpeed="15.84" duration="34.00" routeLength="255.79" waitingTime="0.00" waitingCount="0" stopTime="0.00" timeLoss="17.89" rerouteNo="0" devices="tripinfo_passenger37" vType="passenger" speedFactor="1.15" vaporized=""/>
    <tripinfo id="passenger36" depart="102.70" departLane="A1B1_0" departPos="5.10" departSpeed="0.00" departDelay="73.90" arrival="139.80" arrivalLane="B1C1_1" arrivalPos="10.41" arrivalSpeed="12.32" duration="37.10" routeLength="255.79" waitingTime="0.00" waitingCount="0" stopTime="0.00" timeLoss="16.45" rerouteNo="0" devices="tripinfo_passenger36" vType="passenger" speedFactor="0.89" vaporized=""/>
    <tripinfo id="passenger38" depart="107.90" departLane="A1B1_0" departPos="5.10" departSpeed="0.00" departDelay="77.50" arrival="141.30" arrivalLane="B1C1_1" arrivalPos="10.41" arrivalSpeed="13.22" duration="33.40" routeLength="255.79" waitingTime="0.00" waitingCount="0" stopTime="0.00" timeLoss="14.18" rerouteNo="0" devices="tripinfo_passenger38" vType="passenger" speedFactor="0.96" vaporized=""/>
    <tripinfo id="passenger39" depart="110.50" departLane="A1B1_0" departPos="5.10" departSpeed="0.00" departDelay="79.30" arrival="142.40" arrivalLane="B1C1_0" arrivalPos="10.41" arrivalSpeed="11.02" duration="31.90" routeLength="255.79" waitingTime="0.00" waitingCount="0" stopTime="0.00" timeLoss="8.81" rerouteNo="0" devices="tripinfo_passenger39" vType="passenger" speedFactor="0.80" vaporized=""/>
    <tripinfo id="passenger40" depart="113.10" departLane="A1B1_0" departPos="5.10" departSpeed="0.00" departDelay="81.10" arrival="142.90" arrivalLane="B1C1_1" arrivalPos="10.41" arrivalSpeed="12.70" duration="29.80" routeLength="255.79" waitingTime="0.00" waitingCount="0" stopTime="0.00" timeLoss="9.69" rerouteNo="0" devices="tripinfo_passenger40" vType="passenger" speedFactor="0.92" vaporized=""/>
    <tripinfo id="passenger41" depart="115.80" departLane="A1B1_0" departPos="5.10" departSpeed="0.00" departDelay="83.00" arrival="143.90" arrivalLane="B1C1_0" arrivalPos="10.41" arrivalSpeed="13.87" duration="28.10" routeLength="255.79" waitingTime="0.00" waitingCount="0" stopTime="0.00" timeLoss="10.22" rerouteNo="0" devices="tripinfo_passenger41" vType="passenger" speedFactor="1.03" vaporized=""/>
    <tripinfo id="passenger42" depart="118.40" departLane="A1B1_0" departPos="5.10" departSpeed="0.00" departDelay="84.80" arrival="144.50" arrivalLane="B1C1_1" arrivalPos="10.41" arrivalSpeed="12.52" duration="26.10" routeLength="255.79" waitingTime="0.00" waitingCount="0" stopTime="0.00" timeLoss="5.73" rerouteNo="0" devices="tripinfo_passenger42" vType="passenger" speedFactor="0.91" vaporized=""/>
    <tripinfo id="passenger44" depart="123.60" departLane="A1B1_0" departPos="5.10" departSpeed="0.00" departDelay="88.40" arrival="146.00" arrivalLane="B1C1_1" arrivalPos="10.41" arrivalSpeed="14.68" duration="22.40" routeLength="255.79" waitingTime="0.00" waitingCount="0" stopTime="0.00" timeLoss="5.05" rerouteNo="0" devices="tripinfo_passenger44" vType="passenger" speedFactor="1.07" vaporized=""/>
    <tripinfo id="passenger43" depart="121.00" departLane="A1B1_0" departPos="5.10" departSpeed="0.00" departDelay="86.60" arrival="146.10" arrivalLane="B1C1_0" arrivalPos="10.41" arrivalSpeed="11.50" duration="25.10" routeLength="255.79" waitingTime="0.00" waitingCount="0" stopTime="0.00" timeLoss="2.92" rerouteNo="0" devices="tripinfo_passenger43" vType="passenger" speedFactor="0.83" vaporized=""/>
    <tripinfo id="passenger45" depart="126.20" departLane="A1B1_0" departPos="5.10" departSpeed="0.00" departDelay="90.20" arrival="150.10" arrivalLane="B1C1_0" arrivalPos="10.41" arrivalSpeed="12.22" duration="23.90" routeLength="255.79" waitingTime="0.00" waitingCount="0" stopTime="0.00" timeLoss="3.07" rerouteNo="0" devices="tripinfo_passenger45" vType="passenger" speedFactor="0.89" vaporized=""/>
    <tripinfo id="passenger46" depart="128.80" departLane="A1B1_0" departPos="5.10" departSpeed="0.00" departDelay="92.00" arrival="150.60" arrivalLane="B1C1_1" arrivalPos="10.41" arrivalSpeed="14.20" duration="21.80" routeLength="255.79" waitingTime="0.00" waitingCount="0" stopTime="0.00" timeLoss="3.86" rerouteNo="0" devices="tripinfo_passenger46" vType="passenger" speedFactor="1.03" vaporized=""/>
    <tripinfo id="passenger47" depart="131.50" departLane="A1B1_0" departPos="5.10" departSpeed="0.00" departDelay="93.90" arrival="154.20" arrivalLane="B1C1_0" arrivalPos="10.41" arrivalSpeed="13.05" duration="22.70" routeLength="255.79" waitingTime="0.00" waitingCount="0" stopTime="0.00" timeLoss="3.26" rerouteNo="0" devices="tripinfo_passenger47" vType="passenger" speedFactor="0.95" vaporized=""/>
    <tripinfo id="passenger48" depart="134.10" departLane="A1B1_0" departPos="5.10" departSpeed="0.00" departDelay="95.70" arrival="155.70" arrivalLane="B1C1_0" arrivalPos="10.41" arrivalSpeed="16.01" duration="21.60" routeLength="255.79" waitingTime="0.00" waitingCount="0" stopTime="0.00" timeLoss="5.61" rerouteNo="0" devices="tripinfo_passenger48" vType="passenger" speedFactor="1.15" vaporized=""/>
    <tripinfo id="passenger49" depart="136.70" departLane="A1B1_0" departPos="5.10" departSpeed="0.00" departDelay="97.50" arrival="157.50" arrivalLane="B1C1_0" arrivalPos="10.41" arrivalSpeed="14.85" duration="20.80" routeLength="255.79" waitingTime="0.00" waitingCount="0" stopTime="0.00" timeLoss="3.67" rerouteNo="0" devices="tripinfo_passenger49" vType="passenger" speedFactor="1.08" vaporized=""/>
    <tripinfo id="passenger50" depart="139.30" departLane="A1B1_0" departPos="5.10" departSpeed="0.00" departDelay="99.30" arrival="160.50" arrivalLane="B1C1_0" arrivalPos="10.41" arrivalSpeed="14.70" duration="21.20" routeLength="255.79" waitingTime="0.00" waitingCount="0" stopTime="0.00" timeLoss="3.74" rerouteNo="0" devices="tripinfo_passenger50" vType="passenger" speedFactor="1.06" vaporized=""/>
</tripinfos>
