<?xml version="1.0" encoding="UTF-8"?>

<!-- generated on Fri May  7 22:20:48 2021 by Eclipse SUMO Version 1.1.0
<configuration xmlns:xsi="http://www.w3.org/2001/XMLSchema-instance" xsi:noNamespaceSchemaLocation="http://sumo.dlr.de/xsd/sumoConfiguration.xsd">

    <input>
        <net-file value="contrib/ndn4ivc/traces/square-map/map.net.xml"/>
        <route-files value="contrib/ndn4ivc/traces/square-map/passenger_routes.rou.xml,contrib/ndn4ivc/traces/square-map/emergency_routes.rou.xml,contrib/ndn4ivc/traces/square-map/passenger_accident.rou.xml"/>
    </input>

    <output>
        <emission-output value="contrib/ndn4ivc/traces/square-map/sumo-output.emission.xml"/>
        <tripinfo-output value="contrib/ndn4ivc/traces/square-map/sumo-output.tripinfo.xml"/>
    </output>

    <time>
        <begin value="0"/>
        <end value="3600"/>
        <step-length value="0.100000"/>
    </time>

    <report>
        <verbose value="true"/>
        <error-log value="contrib/ndn4ivc/traces/square-map/SumoError.log"/>
        <no-step-log value="true"/>
    </report>

    <traci_server>
        <remote-port value="3400"/>
    </traci_server>

    <random_number>
        <seed value="10"/>
    </random_number>

    <gui_only>
        <gui-settings-file value="contrib/ndn4ivc/traces/square-map/settings.xml"/>
        <quit-on-end value="true"/>
        <start value="true"/>
        <tracker-interval value="0.1"/>
    </gui_only>

</configuration>
-->

<emission-export xmlns:xsi="http://www.w3.org/2001/XMLSchema-instance" xsi:noNamespaceSchemaLocation="http://sumo.dlr.de/xsd/emission_file.xsd">
    <timestep time="0.00">
        <vehicle id="acc0" eclass="HBEFA3/PC_G_EU4" CO2="2624.72" CO="164.78" HC="0.81" NOx="1.20" PMx="0.07" fuel="1.13" electricity="0.00" noise="55.94" route="!acc0" type="passenger" waiting="0.00" lane="B0C0_0" pos="5.10" speed="0.00" angle="90.00" x="112.30" y="-1.60"/>
        <vehicle id="emergency0" eclass="HBEFA3/LDV" CO2="1997.78" CO="267.06" HC="16.57" NOx="0.00" PMx="1.58" fuel="0.86" electricity="0.00" noise="55.94" route="!emergency0" type="emergency" waiting="0.00" lane="B1B0_0" pos="6.60" speed="0.00" angle="180.00" x="98.40" y="86.20"/>
        <vehicle id="passenger0" eclass="HBEFA3/PC_G_EU4" CO2="2624.72" CO="164.78" HC="0.81" NOx="1.20" PMx="0.07" fuel="1.13" electricity="0.00" noise="55.94" route="!passenger0" type="passenger" waiting="0.00" lane="B1C1_0" pos="5.10" speed="0.00" angle="90.00" x="112.30" y="98.40"/>
        <vehicle id="passenger1" eclass="HBEFA3/PC_G_EU4" CO2="2624.72" CO="164.78" HC="0.81" NOx="1.20" PMx="0.07" fuel="1.13" electricity="0.00" noise="55.94" route="!passenger1" type="passenger" waiting="0.00" lane="A1A0_0" pos="5.10" speed="0.00" angle="180.00" x="-1.60" y="91.70"/>
    </timestep>
    <timestep time="0.10">
        <vehicle id="acc0" eclass="HBEFA3/PC_G_EU4" CO2="2762.99" CO="163.12" HC="0.81" NOx="1.26" PMx="0.07" fuel="1.19" electricity="0.00" noise="67.30" route="!acc0" type="passenger" waiting="0.00" lane="B0C0_0" pos="5.13" speed="0.26" angle="90.00" x="112.33" y="-1.60"/>
        <vehicle id="emergency0" eclass="HBEFA3/LDV" CO2="2178.11" CO="271.89" HC="16.56" NOx="0.00" PMx="1.57" fuel="0.94" electricity="0.00" noise="67.47" route="!emergency0" type="emergency" waiting="0.00" lane="B1B0_0" pos="6.63" speed="0.26" angle="180.00" x="98.40" y="86.17"/>
        <vehicle id="passenger0" eclass="HBEFA3/PC_G_EU4" CO2="2759.93" CO="163.11" HC="0.81" NOx="1.26" PMx="0.07" fuel="1.19" electricity="0.00" noise="67.19" route="!passenger0" type="passenger" waiting="0.00" lane="B1C1_0" pos="5.13" speed="0.25" angle="90.00" x="112.33" y="98.40"/>
        <vehicle id="passenger1" eclass="HBEFA3/PC_G_EU4" CO2="2755.66" CO="163.08" HC="0.81" NOx="1.26" PMx="0.07" fuel="1.18" electricity="0.00" noise="67.03" route="!passenger1" type="passenger" waiting="0.00" lane="A1A0_0" pos="5.12" speed="0.25" angle="180.00" x="-1.60" y="91.68"/>
        <vehicle id="passenger3" eclass="HBEFA3/PC_G_EU4" CO2="2624.72" CO="164.78" HC="0.81" NOx="1.20" PMx="0.07" fuel="1.13" electricity="0.00" noise="55.94" route="!passenger3" type="passenger" waiting="0.00" lane="B0A0_0" pos="5.10" speed="0.00" angle="270.00" x="87.70" y="1.60"/>
        <vehicle id="passenger4" eclass="HBEFA3/PC_G_EU4" CO2="2624.72" CO="164.78" HC="0.81" NOx="1.20" PMx="0.07" fuel="1.13" electricity="0.00" noise="55.94" route="!passenger4" type="passenger" waiting="0.00" lane="D1D0_0" pos="5.10" speed="0.00" angle="180.00" x="298.40" y="91.70"/>
        <vehicle id="passenger5" eclass="HBEFA3/PC_G_EU4" CO2="2624.72" CO="164.78" HC="0.81" NOx="1.20" PMx="0.07" fuel="1.13" electricity="0.00" noise="55.94" route="!passenger5" type="passenger" waiting="0.00" lane="A0B0_0" pos="5.10" speed="0.00" angle="90.00" x="8.30" y="-1.60"/>
    </timestep>
    <timestep time="0.20">
        <vehicle id="acc0" eclass="HBEFA3/PC_G_EU4" CO2="2888.24" CO="161.39" HC="0.80" NOx="1.31" PMx="0.07" fuel="1.24" electricity="0.00" noise="67.07" route="!acc0" type="passenger" waiting="0.00" lane="B0C0_0" pos="5.18" speed="0.50" angle="90.00" x="112.38" y="-1.60"/>
        <vehicle id="emergency0" eclass="HBEFA3/LDV" CO2="2318.65" CO="274.64" HC="16.50" NOx="0.00" PMx="1.55" fuel="1.00" electricity="0.00" noise="66.71" route="!emergency0" type="emergency" waiting="0.00" lane="B1B0_0" pos="6.68" speed="0.50" angle="180.00" x="98.40" y="86.12"/>
        <vehicle id="passenger0" eclass="HBEFA3/PC_G_EU4" CO2="2868.94" CO="161.21" HC="0.80" NOx="1.31" PMx="0.07" fuel="1.23" electricity="0.00" noise="66.62" route="!passenger0" type="passenger" waiting="0.00" lane="B1C1_0" pos="5.17" speed="0.49" angle="90.00" x="112.37" y="98.40"/>
        <vehicle id="passenger1" eclass="HBEFA3/PC_G_EU4" CO2="2876.44" CO="161.33" HC="0.80" NOx="1.31" PMx="0.07" fuel="1.24" electricity="0.00" noise="66.85" route="!passenger1" type="passenger" waiting="0.00" lane="A1A0_0" pos="5.17" speed="0.49" angle="180.00" x="-1.60" y="91.63"/>
        <vehicle id="passenger3" eclass="HBEFA3/PC_G_EU4" CO2="2758.55" CO="163.10" HC="0.81" NOx="1.26" PMx="0.07" fuel="1.19" electricity="0.00" noise="67.14" route="!passenger3" type="passenger" waiting="0.00" lane="B0A0_0" pos="5.13" speed="0.25" angle="270.00" x="87.67" y="1.60"/>
        <vehicle id="passenger4" eclass="HBEFA3/PC_G_EU4" CO2="2764.16" CO="163.13" HC="0.81" NOx="1.26" PMx="0.07" fuel="1.19" electricity="0.00" noise="67.35" route="!passenger4" type="passenger" waiting="0.00" lane="D1D0_0" pos="5.13" speed="0.26" angle="180.00" x="298.40" y="91.67"/>
        <vehicle id="passenger5" eclass="HBEFA3/PC_G_EU4" CO2="2759.87" CO="163.11" HC="0.81" NOx="1.26" PMx="0.07" fuel="1.19" electricity="0.00" noise="67.19" route="!passenger5" type="passenger" waiting="0.00" lane="A0B0_0" pos="5.13" speed="0.25" angle="90.00" x="8.33" y="-1.60"/>
        <vehicle id="passenger8" eclass="HBEFA3/PC_G_EU4" CO2="2624.72" CO="164.78" HC="0.81" NOx="1.20" PMx="0.07" fuel="1.13" electricity="0.00" noise="55.94" route="!passenger8" type="passenger" waiting="0.00" lane="C1B1_0" pos="5.10" speed="0.00" angle="270.00" x="187.70" y="101.60"/>
    </timestep>
    <timestep time="0.30">
        <vehicle id="acc0" eclass="HBEFA3/PC_G_EU4" CO2="3029.16" CO="159.96" HC="0.80" NOx="1.37" PMx="0.07" fuel="1.30" electricity="0.00" noise="67.33" route="!acc0" type="passenger" waiting="0.00" lane="B0C0_0" pos="5.25" speed="0.76" angle="90.00" x="112.45" y="-1.60"/>
        <vehicle id="emergency0" eclass="HBEFA3/LDV" CO2="2453.61" CO="277.29" HC="16.44" NOx="0.00" PMx="1.54" fuel="1.05" electricity="0.00" noise="66.47" route="!emergency0" type="emergency" waiting="0.00" lane="B1B0_0" pos="6.75" speed="0.73" angle="180.00" x="98.40" y="86.05"/>
        <vehicle id="passenger0" eclass="HBEFA3/PC_G_EU4" CO2="2971.40" CO="159.34" HC="0.80" NOx="1.35" PMx="0.07" fuel="1.28" electricity="0.00" noise="66.39" route="!passenger0" type="passenger" waiting="0.00" lane="B1C1_0" pos="5.25" speed="0.72" angle="90.00" x="112.45" y="98.40"/>
        <vehicle id="passenger1" eclass="HBEFA3/PC_G_EU4" CO2="3039.87" CO="160.25" HC="0.80" NOx="1.38" PMx="0.07" fuel="1.31" electricity="0.00" noise="67.62" route="!passenger1" type="passenger" waiting="0.00" lane="A1A0_0" pos="5.25" speed="0.75" angle="180.00" x="-1.60" y="91.55"/>
        <vehicle id="passenger10" eclass="HBEFA3/PC_G_EU4" CO2="2624.72" CO="164.78" HC="0.81" NOx="1.20" PMx="0.07" fuel="1.13" electricity="0.00" noise="55.94" route="!passenger10" type="passenger" waiting="0.00" lane="D1C1_0" pos="5.10" speed="0.00" angle="270.00" x="291.70" y="101.60"/>
        <vehicle id="passenger3" eclass="HBEFA3/PC_G_EU4" CO2="2899.43" CO="161.56" HC="0.80" NOx="1.32" PMx="0.07" fuel="1.25" electricity="0.00" noise="67.38" route="!passenger3" type="passenger" waiting="0.00" lane="B0A0_0" pos="5.18" speed="0.51" angle="270.00" x="87.62" y="1.60"/>
        <vehicle id="passenger4" eclass="HBEFA3/PC_G_EU4" CO2="2897.32" CO="161.48" HC="0.80" NOx="1.32" PMx="0.07" fuel="1.25" electricity="0.00" noise="67.27" route="!passenger4" type="passenger" waiting="0.00" lane="D1D0_0" pos="5.18" speed="0.51" angle="180.00" x="298.40" y="91.62"/>
        <vehicle id="passenger5" eclass="HBEFA3/PC_G_EU4" CO2="2895.40" CO="161.50" HC="0.80" NOx="1.32" PMx="0.07" fuel="1.24" electricity="0.00" noise="67.27" route="!passenger5" type="passenger" waiting="0.00" lane="A0B0_0" pos="5.18" speed="0.51" angle="90.00" x="8.38" y="-1.60"/>
        <vehicle id="passenger8" eclass="HBEFA3/PC_G_EU4" CO2="2766.32" CO="163.15" HC="0.81" NOx="1.26" PMx="0.07" fuel="1.19" electricity="0.00" noise="67.43" route="!passenger8" type="passenger" waiting="0.00" lane="C1B1_0" pos="5.13" speed="0.26" angle="270.00" x="187.67" y="101.60"/>
        <vehicle id="passenger9" eclass="HBEFA3/PC_G_EU4" CO2="2624.72" CO="164.78" HC="0.81" NOx="1.20" PMx="0.07" fuel="1.13" electricity="0.00" noise="55.94" route="!passenger9" type="passenger" waiting="0.00" lane="A0A1_0" pos="5.10" speed="0.00" angle="0.00" x="1.60" y="8.30"/>
    </timestep>
    <timestep time="0.40">
        <vehicle id="acc0" eclass="HBEFA3/PC_G_EU4" CO2="3081.31" CO="157.22" HC="0.79" NOx="1.39" PMx="0.07" fuel="1.32" electricity="0.00" noise="66.22" route="!acc0" type="passenger" waiting="0.00" lane="B0C0_0" pos="5.35" speed="0.98" angle="90.00" x="112.55" y="-1.60"/>
        <vehicle id="emergency0" eclass="HBEFA3/LDV" CO2="2576.45" CO="279.38" HC="16.38" NOx="0.00" PMx="1.52" fuel="1.11" electricity="0.00" noise="66.25" route="!emergency0" type="emergency" waiting="0.00" lane="B1B0_0" pos="6.85" speed="0.96" angle="180.00" x="98.40" y="85.95"/>
        <vehicle id="passenger0" eclass="HBEFA3/PC_G_EU4" CO2="3030.43" CO="156.94" HC="0.79" NOx="1.37" PMx="0.07" fuel="1.30" electricity="0.00" noise="65.67" route="!passenger0" type="passenger" waiting="0.00" lane="B1C1_0" pos="5.34" speed="0.94" angle="90.00" x="112.54" y="98.40"/>
        <vehicle id="passenger1" eclass="HBEFA3/PC_G_EU4" CO2="3163.56" CO="158.53" HC="0.80" NOx="1.43" PMx="0.07" fuel="1.36" electricity="0.00" noise="67.42" route="!passenger1" type="passenger" waiting="0.00" lane="A1A0_0" pos="5.35" speed="1.01" angle="180.00" x="-1.60" y="91.45"/>
        <vehicle id="passenger10" eclass="HBEFA3/PC_G_EU4" CO2="2755.03" CO="163.08" HC="0.81" NOx="1.26" PMx="0.07" fuel="1.18" electricity="0.00" noise="67.01" route="!passenger10" type="passenger" waiting="0.00" lane="D1C1_0" pos="5.12" speed="0.25" angle="270.00" x="291.68" y="101.60"/>
        <vehicle id="passenger12" eclass="HBEFA3/PC_G_EU4" CO2="2624.72" CO="164.78" HC="0.81" NOx="1.20" PMx="0.07" fuel="1.13" electricity="0.00" noise="55.94" route="!passenger12" type="passenger" waiting="0.00" lane="C1C0_0" pos="5.10" speed="0.00" angle="180.00" x="198.40" y="87.70"/>
        <vehicle id="passenger3" eclass="HBEFA3/PC_G_EU4" CO2="3049.86" CO="160.20" HC="0.80" NOx="1.38" PMx="0.07" fuel="1.31" electricity="0.00" noise="67.66" route="!passenger3" type="passenger" waiting="0.00" lane="B0A0_0" pos="5.25" speed="0.77" angle="270.00" x="87.55" y="1.60"/>
        <vehicle id="passenger4" eclass="HBEFA3/PC_G_EU4" CO2="3018.67" CO="159.74" HC="0.80" NOx="1.37" PMx="0.07" fuel="1.30" electricity="0.00" noise="67.09" route="!passenger4" type="passenger" waiting="0.00" lane="D1D0_0" pos="5.25" speed="0.76" angle="180.00" x="298.40" y="91.55"/>
        <vehicle id="passenger5" eclass="HBEFA3/PC_G_EU4" CO2="2971.94" CO="159.15" HC="0.79" NOx="1.35" PMx="0.07" fuel="1.28" electricity="0.00" noise="66.28" route="!passenger5" type="passenger" waiting="0.00" lane="A0B0_0" pos="5.25" speed="0.74" angle="90.00" x="8.45" y="-1.60"/>
        <vehicle id="passenger8" eclass="HBEFA3/PC_G_EU4" CO2="2886.26" CO="161.33" HC="0.80" NOx="1.31" PMx="0.07" fuel="1.24" electricity="0.00" noise="66.98" route="!passenger8" type="passenger" waiting="0.00" lane="C1B1_0" pos="5.18" speed="0.51" angle="270.00" x="187.62" y="101.60"/>
        <vehicle id="passenger9" eclass="HBEFA3/PC_G_EU4" CO2="2753.84" CO="163.07" HC="0.81" NOx="1.26" PMx="0.07" fuel="1.18" electricity="0.00" noise="66.96" route="!passenger9" type="passenger" waiting="0.00" lane="A0A1_0" pos="5.12" speed="0.25" angle="0.00" x="1.60" y="8.32"/>
    </timestep>
    <timestep time="0.50">
        <vehicle id="acc0" eclass="HBEFA3/PC_G_EU4" CO2="3176.57" CO="155.46" HC="0.78" NOx="1.43" PMx="0.07" fuel="1.37" electricity="0.00" noise="66.16" route="!acc0" type="passenger" waiting="0.00" lane="B0C0_0" pos="5.47" speed="1.20" angle="90.00" x="112.67" y="-1.60"/>
        <vehicle id="emergency0" eclass="HBEFA3/LDV" CO2="2845.12" CO="290.57" HC="16.55" NOx="0.00" PMx="1.54" fuel="1.22" electricity="0.00" noise="67.76" route="!emergency0" type="emergency" waiting="0.00" lane="B1B0_0" pos="6.97" speed="1.22" angle="180.00" x="98.40" y="85.83"/>
        <vehicle id="passenger0" eclass="HBEFA3/PC_G_EU4" CO2="3137.43" CO="155.50" HC="0.78" NOx="1.41" PMx="0.07" fuel="1.35" electricity="0.00" noise="65.92" route="!passenger0" type="passenger" waiting="0.00" lane="B1C1_0" pos="5.46" speed="1.15" angle="90.00" x="112.66" y="98.40"/>
        <vehicle id="passenger1" eclass="HBEFA3/PC_G_EU4" CO2="3282.58" CO="156.83" HC="0.79" NOx="1.48" PMx="0.08" fuel="1.41" electricity="0.00" noise="67.30" route="!passenger1" type="passenger" waiting="0.00" lane="A1A0_0" pos="5.48" speed="1.25" angle="180.00" x="-1.60" y="91.32"/>
        <vehicle id="passenger10" eclass="HBEFA3/PC_G_EU4" CO2="2872.50" CO="161.30" HC="0.80" NOx="1.31" PMx="0.07" fuel="1.23" electricity="0.00" noise="66.76" route="!passenger10" type="passenger" waiting="0.00" lane="D1C1_0" pos="5.17" speed="0.49" angle="270.00" x="291.63" y="101.60"/>
        <vehicle id="passenger12" eclass="HBEFA3/PC_G_EU4" CO2="2765.63" CO="163.14" HC="0.81" NOx="1.26" PMx="0.07" fuel="1.19" electricity="0.00" noise="67.40" route="!passenger12" type="passenger" waiting="0.00" lane="C1C0_0" pos="5.13" speed="0.26" angle="180.00" x="198.40" y="87.67"/>
        <vehicle id="passenger18" eclass="HBEFA3/PC_G_EU4" CO2="2624.72" CO="164.78" HC="0.81" NOx="1.20" PMx="0.07" fuel="1.13" electricity="0.00" noise="55.94" route="!passenger18" type="passenger" waiting="0.00" lane="D0D1_0" pos="5.10" speed="0.00" angle="0.00" x="301.60" y="8.30"/>
        <vehicle id="passenger3" eclass="HBEFA3/PC_G_EU4" CO2="3148.24" CO="158.08" HC="0.79" NOx="1.42" PMx="0.07" fuel="1.35" electricity="0.00" noise="67.10" route="!passenger3" type="passenger" waiting="0.00" lane="B0A0_0" pos="5.35" speed="1.01" angle="270.00" x="87.45" y="1.60"/>
        <vehicle id="passenger4" eclass="HBEFA3/PC_G_EU4" CO2="3074.91" CO="157.12" HC="0.79" NOx="1.39" PMx="0.07" fuel="1.32" electricity="0.00" noise="66.12" route="!passenger4" type="passenger" waiting="0.00" lane="D1D0_0" pos="5.35" speed="0.98" angle="180.00" x="298.40" y="91.45"/>
        <vehicle id="passenger5" eclass="HBEFA3/PC_G_EU4" CO2="3045.00" CO="156.99" HC="0.79" NOx="1.38" PMx="0.07" fuel="1.31" electricity="0.00" noise="65.82" route="!passenger5" type="passenger" waiting="0.00" lane="A0B0_0" pos="5.34" speed="0.95" angle="90.00" x="8.54" y="-1.60"/>
        <vehicle id="passenger8" eclass="HBEFA3/PC_G_EU4" CO2="2962.29" CO="159.04" HC="0.79" NOx="1.34" PMx="0.07" fuel="1.27" electricity="0.00" noise="66.11" route="!passenger8" type="passenger" waiting="0.00" lane="C1B1_0" pos="5.25" speed="0.73" angle="270.00" x="187.55" y="101.60"/>
        <vehicle id="passenger9" eclass="HBEFA3/PC_G_EU4" CO2="2879.98" CO="161.39" HC="0.80" NOx="1.31" PMx="0.07" fuel="1.24" electricity="0.00" noise="66.96" route="!passenger9" type="passenger" waiting="0.00" lane="A0A1_0" pos="5.17" speed="0.49" angle="0.00" x="1.60" y="8.37"/>
    </timestep>
    <timestep time="0.60">
        <vehicle id="acc0" eclass="HBEFA3/PC_G_EU4" CO2="3313.43" CO="154.47" HC="0.78" NOx="1.49" PMx="0.08" fuel="1.42" electricity="0.00" noise="66.59" route="!acc0" type="passenger" waiting="0.00" lane="B0C0_0" pos="5.61" speed="1.43" angle="90.00" x="112.81" y="-1.60"/>
        <vehicle id="emergency0" eclass="HBEFA3/LDV" CO2="2985.17" CO="293.34" HC="16.50" NOx="0.00" PMx="1.52" fuel="1.28" electricity="0.00" noise="67.47" route="!emergency0" type="emergency" waiting="0.00" lane="B1B0_0" pos="7.11" speed="1.47" angle="180.00" x="98.40" y="85.69"/>
        <vehicle id="passenger0" eclass="HBEFA3/PC_G_EU4" CO2="3188.74" CO="153.15" HC="0.77" NOx="1.43" PMx="0.07" fuel="1.37" electricity="0.00" noise="65.47" route="!passenger0" type="passenger" waiting="0.00" lane="B1C1_0" pos="5.59" speed="1.36" angle="90.00" x="112.79" y="98.40"/>
        <vehicle id="passenger1" eclass="HBEFA3/PC_G_EU4" CO2="3290.76" CO="153.38" HC="0.78" NOx="1.48" PMx="0.08" fuel="1.41" electricity="0.00" noise="66.13" route="!passenger1" type="passenger" waiting="0.00" lane="A1A0_0" pos="5.62" speed="1.47" angle="180.00" x="-1.60" y="91.18"/>
        <vehicle id="passenger10" eclass="HBEFA3/PC_G_EU4" CO2="2965.20" CO="159.27" HC="0.79" NOx="1.35" PMx="0.07" fuel="1.27" electricity="0.00" noise="66.29" route="!passenger10" type="passenger" waiting="0.00" lane="D1C1_0" pos="5.25" speed="0.72" angle="270.00" x="291.55" y="101.60"/>
        <vehicle id="passenger12" eclass="HBEFA3/PC_G_EU4" CO2="2889.73" CO="161.38" HC="0.80" NOx="1.32" PMx="0.07" fuel="1.24" electricity="0.00" noise="67.07" route="!passenger12" type="passenger" waiting="0.00" lane="C1C0_0" pos="5.18" speed="0.51" angle="180.00" x="198.40" y="87.62"/>
        <vehicle id="passenger18" eclass="HBEFA3/PC_G_EU4" CO2="2766.05" CO="163.14" HC="0.81" NOx="1.26" PMx="0.07" fuel="1.19" electricity="0.00" noise="67.42" route="!passenger18" type="passenger" waiting="0.00" lane="D0D1_0" pos="5.13" speed="0.26" angle="0.00" x="301.60" y="8.33"/>
        <vehicle id="passenger19" eclass="HBEFA3/PC_G_EU4" CO2="2624.72" CO="164.78" HC="0.81" NOx="1.20" PMx="0.07" fuel="1.13" electricity="0.00" noise="55.94" route="!passenger19" type="passenger" waiting="0.00" lane="D0C0_0" pos="5.10" speed="0.00" angle="270.00" x="291.70" y="1.60"/>
        <vehicle id="passenger3" eclass="HBEFA3/PC_G_EU4" CO2="3194.18" CO="155.30" HC="0.78" NOx="1.44" PMx="0.07" fuel="1.37" electricity="0.00" noise="66.21" route="!passenger3" type="passenger" waiting="0.00" lane="B0A0_0" pos="5.48" speed="1.24" angle="270.00" x="87.32" y="1.60"/>
        <vehicle id="passenger4" eclass="HBEFA3/PC_G_EU4" CO2="3162.15" CO="155.26" HC="0.78" NOx="1.42" PMx="0.07" fuel="1.36" electricity="0.00" noise="65.99" route="!passenger4" type="passenger" waiting="0.00" lane="D1D0_0" pos="5.47" speed="1.20" angle="180.00" x="298.40" y="91.33"/>
        <vehicle id="passenger5" eclass="HBEFA3/PC_G_EU4" CO2="3217.32" CO="156.55" HC="0.79" NOx="1.45" PMx="0.07" fuel="1.38" electricity="0.00" noise="66.83" route="!passenger5" type="passenger" waiting="0.00" lane="A0B0_0" pos="5.46" speed="1.19" angle="90.00" x="8.66" y="-1.60"/>
        <vehicle id="passenger8" eclass="HBEFA3/PC_G_EU4" CO2="3146.93" CO="158.58" HC="0.80" NOx="1.42" PMx="0.07" fuel="1.35" electricity="0.00" noise="67.35" route="!passenger8" type="passenger" waiting="0.00" lane="C1B1_0" pos="5.35" speed="0.98" angle="270.00" x="187.45" y="101.60"/>
        <vehicle id="passenger9" eclass="HBEFA3/PC_G_EU4" CO2="3001.34" CO="159.71" HC="0.80" NOx="1.36" PMx="0.07" fuel="1.29" electricity="0.00" noise="66.92" route="!passenger9" type="passenger" waiting="0.00" lane="A0A1_0" pos="5.25" speed="0.74" angle="0.00" x="1.60" y="8.45"/>
    </timestep>
    <timestep time="0.70">
        <vehicle id="acc0" eclass="HBEFA3/PC_G_EU4" CO2="3457.15" CO="153.56" HC="0.78" NOx="1.55" PMx="0.08" fuel="1.49" electricity="0.00" noise="66.96" route="!acc0" type="passenger" waiting="0.00" lane="B0C0_0" pos="5.78" speed="1.67" angle="90.00" x="112.98" y="-1.60"/>
        <vehicle id="emergency0" eclass="HBEFA3/LDV" CO2="2971.21" CO="286.63" HC="16.19" NOx="0.00" PMx="1.48" fuel="1.27" electricity="0.00" noise="66.07" route="!emergency0" type="emergency" waiting="0.00" lane="B1B0_0" pos="7.28" speed="1.68" angle="180.00" x="98.40" y="85.52"/>
        <vehicle id="passenger0" eclass="HBEFA3/PC_G_EU4" CO2="3506.84" CO="155.51" HC="0.79" NOx="1.58" PMx="0.08" fuel="1.51" electricity="0.00" noise="67.76" route="!passenger0" type="passenger" waiting="0.00" lane="B1C1_0" pos="5.75" speed="1.61" angle="90.00" x="112.95" y="98.40"/>
        <vehicle id="passenger1" eclass="HBEFA3/PC_G_EU4" CO2="3332.47" CO="150.86" HC="0.77" NOx="1.49" PMx="0.08" fuel="1.43" electricity="0.00" noise="65.67" route="!passenger1" type="passenger" waiting="0.00" lane="A1A0_0" pos="5.79" speed="1.68" angle="180.00" x="-1.60" y="91.01"/>
        <vehicle id="passenger10" eclass="HBEFA3/PC_G_EU4" CO2="3167.60" CO="159.04" HC="0.80" NOx="1.43" PMx="0.07" fuel="1.36" electricity="0.00" noise="67.72" route="!passenger10" type="passenger" waiting="0.00" lane="D1C1_0" pos="5.34" speed="0.98" angle="270.00" x="291.46" y="101.60"/>
        <vehicle id="passenger12" eclass="HBEFA3/PC_G_EU4" CO2="2999.51" CO="159.52" HC="0.80" NOx="1.36" PMx="0.07" fuel="1.29" electricity="0.00" noise="66.78" route="!passenger12" type="passenger" waiting="0.00" lane="C1C0_0" pos="5.25" speed="0.75" angle="180.00" x="198.40" y="87.55"/>
        <vehicle id="passenger18" eclass="HBEFA3/PC_G_EU4" CO2="2881.41" CO="161.28" HC="0.80" NOx="1.31" PMx="0.07" fuel="1.24" electricity="0.00" noise="66.87" route="!passenger18" type="passenger" waiting="0.00" lane="D0D1_0" pos="5.18" speed="0.50" angle="0.00" x="301.60" y="8.38"/>
        <vehicle id="passenger19" eclass="HBEFA3/PC_G_EU4" CO2="2753.57" CO="163.07" HC="0.81" NOx="1.26" PMx="0.07" fuel="1.18" electricity="0.00" noise="66.95" route="!passenger19" type="passenger" waiting="0.00" lane="D0C0_0" pos="5.12" speed="0.25" angle="270.00" x="291.68" y="1.60"/>
        <vehicle id="passenger3" eclass="HBEFA3/PC_G_EU4" CO2="3443.12" CO="156.19" HC="0.79" NOx="1.55" PMx="0.08" fuel="1.48" electricity="0.00" noise="67.76" route="!passenger3" type="passenger" waiting="0.00" lane="B0A0_0" pos="5.63" speed="1.49" angle="270.00" x="87.17" y="1.60"/>
        <vehicle id="passenger4" eclass="HBEFA3/PC_G_EU4" CO2="3254.02" CO="153.56" HC="0.78" NOx="1.46" PMx="0.07" fuel="1.40" electricity="0.00" noise="65.99" route="!passenger4" type="passenger" waiting="0.00" lane="D1D0_0" pos="5.61" speed="1.41" angle="180.00" x="298.40" y="91.19"/>
        <vehicle id="passenger5" eclass="HBEFA3/PC_G_EU4" CO2="3236.19" CO="153.41" HC="0.77" NOx="1.45" PMx="0.07" fuel="1.39" electricity="0.00" noise="65.84" route="!passenger5" type="passenger" waiting="0.00" lane="A0B0_0" pos="5.60" speed="1.40" angle="90.00" x="8.80" y="-1.60"/>
        <vehicle id="passenger8" eclass="HBEFA3/PC_G_EU4" CO2="3142.28" CO="154.93" HC="0.78" NOx="1.42" PMx="0.07" fuel="1.35" electricity="0.00" noise="65.74" route="!passenger8" type="passenger" waiting="0.00" lane="C1B1_0" pos="5.47" speed="1.19" angle="270.00" x="187.33" y="101.60"/>
        <vehicle id="passenger9" eclass="HBEFA3/PC_G_EU4" CO2="3056.47" CO="157.12" HC="0.79" NOx="1.38" PMx="0.07" fuel="1.31" electricity="0.00" noise="65.97" route="!passenger9" type="passenger" waiting="0.00" lane="A0A1_0" pos="5.34" speed="0.96" angle="0.00" x="1.60" y="8.54"/>
    </timestep>
    <timestep time="0.80">
        <vehicle id="acc0" eclass="HBEFA3/PC_G_EU4" CO2="3541.22" CO="151.59" HC="0.77" NOx="1.58" PMx="0.08" fuel="1.52" electricity="0.00" noise="66.75" route="!acc0" type="passenger" waiting="0.00" lane="B0C0_0" pos="5.97" speed="1.90" angle="90.00" x="113.17" y="-1.60"/>
        <vehicle id="emergency0" eclass="HBEFA3/LDV" CO2="3038.81" CO="285.77" HC="16.06" NOx="0.00" PMx="1.46" fuel="1.30" electricity="0.00" noise="65.71" route="!emergency0" type="emergency" waiting="0.00" lane="B1B0_0" pos="7.47" speed="1.89" angle="180.00" x="98.40" y="85.33"/>
        <vehicle id="passenger0" eclass="HBEFA3/PC_G_EU4" CO2="3632.67" CO="154.02" HC="0.79" NOx="1.63" PMx="0.08" fuel="1.56" electricity="0.00" noise="67.72" route="!passenger0" type="passenger" waiting="0.00" lane="B1C1_0" pos="5.94" speed="1.86" angle="90.00" x="113.14" y="98.40"/>
        <vehicle id="passenger1" eclass="HBEFA3/PC_G_EU4" CO2="3537.92" CO="151.41" HC="0.77" NOx="1.58" PMx="0.08" fuel="1.52" electricity="0.00" noise="66.69" route="!passenger1" type="passenger" waiting="0.00" lane="A1A0_0" pos="5.98" speed="1.91" angle="180.00" x="-1.60" y="90.82"/>
        <vehicle id="passenger10" eclass="HBEFA3/PC_G_EU4" CO2="3127.86" CO="154.72" HC="0.78" NOx="1.41" PMx="0.07" fuel="1.34" electricity="0.00" noise="65.57" route="!passenger10" type="passenger" waiting="0.00" lane="D1C1_0" pos="5.46" speed="1.19" angle="270.00" x="291.34" y="101.60"/>
        <vehicle id="passenger12" eclass="HBEFA3/PC_G_EU4" CO2="3052.38" CO="156.93" HC="0.79" NOx="1.38" PMx="0.07" fuel="1.31" electricity="0.00" noise="65.85" route="!passenger12" type="passenger" waiting="0.00" lane="C1C0_0" pos="5.35" speed="0.96" angle="180.00" x="198.40" y="87.45"/>
        <vehicle id="passenger18" eclass="HBEFA3/PC_G_EU4" CO2="3042.72" CO="160.17" HC="0.80" NOx="1.38" PMx="0.07" fuel="1.31" electricity="0.00" noise="67.59" route="!passenger18" type="passenger" waiting="0.00" lane="D0D1_0" pos="5.25" speed="0.76" angle="0.00" x="301.60" y="8.45"/>
        <vehicle id="passenger19" eclass="HBEFA3/PC_G_EU4" CO2="2884.53" CO="161.44" HC="0.80" NOx="1.31" PMx="0.07" fuel="1.24" electricity="0.00" noise="67.07" route="!passenger19" type="passenger" waiting="0.00" lane="D0C0_0" pos="5.17" speed="0.50" angle="270.00" x="291.63" y="1.60"/>
        <vehicle id="passenger3" eclass="HBEFA3/PC_G_EU4" CO2="3475.05" CO="153.03" HC="0.78" NOx="1.56" PMx="0.08" fuel="1.49" electricity="0.00" noise="66.88" route="!passenger3" type="passenger" waiting="0.00" lane="B0A0_0" pos="5.80" speed="1.73" angle="270.00" x="87.00" y="1.60"/>
        <vehicle id="passenger4" eclass="HBEFA3/PC_G_EU4" CO2="3397.46" CO="152.82" HC="0.78" NOx="1.52" PMx="0.08" fuel="1.46" electricity="0.00" noise="66.49" route="!passenger4" type="passenger" waiting="0.00" lane="D1D0_0" pos="5.78" speed="1.64" angle="180.00" x="298.40" y="91.02"/>
        <vehicle id="passenger5" eclass="HBEFA3/PC_G_EU4" CO2="3422.39" CO="153.43" HC="0.78" NOx="1.54" PMx="0.08" fuel="1.47" electricity="0.00" noise="66.78" route="!passenger5" type="passenger" waiting="0.00" lane="A0B0_0" pos="5.77" speed="1.63" angle="90.00" x="8.97" y="-1.60"/>
        <vehicle id="passenger8" eclass="HBEFA3/PC_G_EU4" CO2="3402.06" CO="156.10" HC="0.79" NOx="1.53" PMx="0.08" fuel="1.46" electricity="0.00" noise="67.56" route="!passenger8" type="passenger" waiting="0.00" lane="C1B1_0" pos="5.61" speed="1.45" angle="270.00" x="187.19" y="101.60"/>
        <vehicle id="passenger9" eclass="HBEFA3/PC_G_EU4" CO2="3286.26" CO="157.57" HC="0.79" NOx="1.48" PMx="0.08" fuel="1.41" electricity="0.00" noise="67.63" route="!passenger9" type="passenger" waiting="0.00" lane="A0A1_0" pos="5.47" speed="1.21" angle="0.00" x="1.60" y="8.67"/>
    </timestep>
    <timestep time="0.90">
        <vehicle id="acc0" eclass="HBEFA3/PC_G_EU4" CO2="3763.17" CO="152.21" HC="0.78" NOx="1.68" PMx="0.08" fuel="1.62" electricity="0.00" noise="67.62" route="!acc0" type="passenger" waiting="0.00" lane="B0C0_0" pos="6.19" speed="2.15" angle="90.00" x="113.39" y="-1.60"/>
        <vehicle id="emergency0" eclass="HBEFA3/LDV" CO2="3126.00" CO="286.42" HC="15.98" NOx="0.00" PMx="1.45" fuel="1.34" electricity="0.00" noise="65.60" route="!emergency0" type="emergency" waiting="0.00" lane="B1B0_0" pos="7.68" speed="2.09" angle="180.00" x="98.40" y="85.12"/>
        <vehicle id="passenger0" eclass="HBEFA3/PC_G_EU4" CO2="3364.54" CO="145.58" HC="0.74" NOx="1.50" PMx="0.07" fuel="1.45" electricity="0.00" noise="64.75" route="!passenger0" type="passenger" waiting="0.00" lane="B1C1_0" pos="6.14" speed="2.05" angle="90.00" x="113.34" y="98.40"/>
        <vehicle id="passenger1" eclass="HBEFA3/PC_G_EU4" CO2="3438.09" CO="146.28" HC="0.75" NOx="1.53" PMx="0.08" fuel="1.48" electricity="0.00" noise="65.20" route="!passenger1" type="passenger" waiting="0.00" lane="A1A0_0" pos="6.19" speed="2.10" angle="180.00" x="-1.60" y="90.61"/>
        <vehicle id="passenger10" eclass="HBEFA3/PC_G_EU4" CO2="3182.48" CO="152.53" HC="0.77" NOx="1.43" PMx="0.07" fuel="1.37" electricity="0.00" noise="65.26" route="!passenger10" type="passenger" waiting="0.00" lane="D1C1_0" pos="5.60" speed="1.39" angle="270.00" x="291.20" y="101.60"/>
        <vehicle id="passenger12" eclass="HBEFA3/PC_G_EU4" CO2="3227.59" CO="156.54" HC="0.79" NOx="1.46" PMx="0.08" fuel="1.39" electricity="0.00" noise="66.89" route="!passenger12" type="passenger" waiting="0.00" lane="C1C0_0" pos="5.47" speed="1.20" angle="180.00" x="198.40" y="87.33"/>