<?xml version="1.0" encoding="UTF-8"?>

<!-- generated on Tue May  4 06:54:14 2021 by Eclipse SUMO Version 1.1.0
<configuration xmlns:xsi="http://www.w3.org/2001/XMLSchema-instance" xsi:noNamespaceSchemaLocation="http://sumo.dlr.de/xsd/sumoConfiguration.xsd">

    <input>
        <net-file value="contrib/ndn4ivc/traces/square-map/map.net.xml"/>
        <route-files value="contrib/ndn4ivc/traces/square-map/passenger_routes.rou.xml,contrib/ndn4ivc/traces/square-map/emergency_routes.rou.xml,contrib/ndn4ivc/traces/square-map/passenger_accident.xml"/>
    </input>

    <output>
        <emission-output value="contrib/ndn4ivc/traces/square-map/sumo-output.emission.xml"/>
        <tripinfo-output value="contrib/ndn4ivc/traces/square-map/sumo-output.tripinfo.xml"/>
    </output>

    <time>
        <begin value="0"/>
        <end value="3600"/>
        <step-length value="0.100000"/>
    </time>

    <report>
        <verbose value="true"/>
        <error-log value="contrib/ndn4ivc/traces/square-map/SumoError.log"/>
        <no-step-log value="true"/>
    </report>

    <traci_server>
        <remote-port value="3418"/>
    </traci_server>

    <random_number>
        <seed value="10"/>
    </random_number>

    <gui_only>
        <gui-settings-file value="contrib/ndn4ivc/traces/square-map/settings.xml"/>
        <quit-on-end value="true"/>
        <start value="true"/>
        <tracker-interval value="0.1"/>
    </gui_only>

</configuration>
-->

<tripinfos xmlns:xsi="http://www.w3.org/2001/XMLSchema-instance" xsi:noNamespaceSchemaLocation="http://sumo.dlr.de/xsd/tripinfo_file.xsd">
</tripinfos>
