<?xml version="1.0" encoding="UTF-8"?>

<!-- generated on Mon May  3 15:24:32 2021 by Eclipse SUMO Version 1.1.0
<configuration xmlns:xsi="http://www.w3.org/2001/XMLSchema-instance" xsi:noNamespaceSchemaLocation="http://sumo.dlr.de/xsd/sumoConfiguration.xsd">

    <input>
        <net-file value="contrib/ndn4ivc/traces/square-map/map.net.xml"/>
        <route-files value="contrib/ndn4ivc/traces/square-map/passenger_routes.rou.xml,contrib/ndn4ivc/traces/square-map/emergency_routes.rou.xml,contrib/ndn4ivc/traces/square-map/passenger_accident.xml"/>
    </input>

    <output>
        <emission-output value="contrib/ndn4ivc/traces/square-map/sumo-output.emission.xml"/>
        <tripinfo-output value="contrib/ndn4ivc/traces/square-map/sumo-output.tripinfo.xml"/>
    </output>

    <time>
        <begin value="0"/>
        <end value="3600"/>
        <step-length value="0.100000"/>
    </time>

    <report>
        <verbose value="true"/>
        <error-log value="contrib/ndn4ivc/traces/square-map/SumoError.log"/>
        <no-step-log value="true"/>
    </report>

    <traci_server>
        <remote-port value="3418"/>
    </traci_server>

    <random_number>
        <seed value="10"/>
    </random_number>

    <gui_only>
        <gui-settings-file value="contrib/ndn4ivc/traces/square-map/settings.xml"/>
        <quit-on-end value="true"/>
        <start value="true"/>
        <tracker-interval value="0.1"/>
    </gui_only>

</configuration>
-->

<tripinfos xmlns:xsi="http://www.w3.org/2001/XMLSchema-instance" xsi:noNamespaceSchemaLocation="http://sumo.dlr.de/xsd/tripinfo_file.xsd">
    <tripinfo id="passenger1" depart="2.00" departLane="B1A1_0" departPos="5.10" departSpeed="0.00" departDelay="0.00" arrival="21.50" arrivalLane="A1A0_0" arrivalPos="93.60" arrivalSpeed="13.24" duration="19.50" routeLength="185.84" waitingTime="0.00" waitingCount="0" stopTime="0.00" timeLoss="4.76" rerouteNo="0" devices="tripinfo_passenger1" vType="passenger" speedFactor="0.96" vaporized=""/>
    <tripinfo id="passenger5" depart="10.00" departLane="B0B1_0" departPos="5.10" departSpeed="0.00" departDelay="0.00" arrival="28.40" arrivalLane="B1C1_0" arrivalPos="85.60" arrivalSpeed="15.11" duration="18.40" routeLength="175.13" waitingTime="0.00" waitingCount="0" stopTime="0.00" timeLoss="6.05" rerouteNo="0" devices="tripinfo_passenger5" vType="passenger" speedFactor="1.09" vaporized=""/>
    <tripinfo id="passenger2" depart="4.00" departLane="A0B0_0" departPos="5.10" departSpeed="0.00" departDelay="0.00" arrival="33.50" arrivalLane="A0A1_0" arrivalPos="93.60" arrivalSpeed="14.59" duration="29.50" routeLength="274.96" waitingTime="0.00" waitingCount="0" stopTime="0.00" timeLoss="9.25" rerouteNo="0" devices="tripinfo_passenger2" vType="passenger" speedFactor="1.05" vaporized=""/>
    <tripinfo id="passenger11" depart="22.00" departLane="D1C1_0" departPos="5.10" departSpeed="0.00" departDelay="0.00" arrival="38.30" arrivalLane="C1B1_0" arrivalPos="85.60" arrivalSpeed="14.37" duration="16.30" routeLength="184.50" waitingTime="0.00" waitingCount="0" stopTime="0.00" timeLoss="3.40" rerouteNo="0" devices="tripinfo_passenger11" vType="passenger" speedFactor="1.04" vaporized=""/>
    <tripinfo id="passenger4" depart="8.60" departLane="C0D0_0" departPos="5.10" departSpeed="0.00" departDelay="0.60" arrival="40.10" arrivalLane="C0C1_0" arrivalPos="85.60" arrivalSpeed="12.59" duration="31.50" routeLength="273.40" waitingTime="0.00" waitingCount="0" stopTime="0.00" timeLoss="7.85" rerouteNo="0" devices="tripinfo_passenger4" vType="passenger" speedFactor="0.91" vaporized=""/>
    <tripinfo id="passenger0" depart="0.00" departLane="A0A1_0" departPos="5.10" departSpeed="0.00" departDelay="0.00" arrival="44.00" arrivalLane="C0C1_0" arrivalPos="85.60" arrivalSpeed="15.25" duration="44.00" routeLength="465.58" waitingTime="0.00" waitingCount="0" stopTime="0.00" timeLoss="11.54" rerouteNo="0" devices="tripinfo_passenger0" vType="passenger" speedFactor="1.10" vaporized=""/>
    <tripinfo id="passenger14" depart="28.00" departLane="A0A1_0" departPos="5.10" departSpeed="0.00" departDelay="0.00" arrival="48.50" arrivalLane="A1A0_0" arrivalPos="93.60" arrivalSpeed="14.43" duration="20.50" routeLength="186.77" waitingTime="0.00" waitingCount="0" stopTime="0.00" timeLoss="6.58" rerouteNo="0" devices="tripinfo_passenger14" vType="passenger" speedFactor="1.04" vaporized=""/>
    <tripinfo id="passenger12" depart="28.60" departLane="C1C0_0" departPos="5.10" departSpeed="0.00" departDelay="4.60" arrival="50.00" arrivalLane="C0B0_0" arrivalPos="85.60" arrivalSpeed="12.51" duration="21.40" routeLength="175.13" waitingTime="0.00" waitingCount="0" stopTime="0.00" timeLoss="6.65" rerouteNo="0" devices="tripinfo_passenger12" vType="passenger" speedFactor="0.91" vaporized=""/>
    <tripinfo id="passenger3" depart="6.00" departLane="C0D0_0" departPos="5.10" departSpeed="0.00" departDelay="0.00" arrival="51.00" arrivalLane="A0A1_0" arrivalPos="93.60" arrivalSpeed="13.76" duration="45.00" routeLength="478.95" waitingTime="0.00" waitingCount="0" stopTime="0.00" timeLoss="8.93" rerouteNo="0" devices="tripinfo_passenger3" vType="passenger" speedFactor="1.00" vaporized=""/>
    <tripinfo id="passenger7" depart="29.40" departLane="D0C0_0" departPos="5.10" departSpeed="0.00" departDelay="15.40" arrival="52.80" arrivalLane="B0A0_0" arrivalPos="89.60" arrivalSpeed="15.35" duration="23.40" routeLength="288.50" waitingTime="0.00" waitingCount="0" stopTime="0.00" timeLoss="4.75" rerouteNo="0" devices="tripinfo_passenger7" vType="passenger" speedFactor="1.11" vaporized=""/>
    <tripinfo id="passenger22" depart="44.50" departLane="C1B1_0" departPos="5.10" departSpeed="0.00" departDelay="0.50" arrival="53.70" arrivalLane="C1B1_0" arrivalPos="85.60" arrivalSpeed="13.88" duration="9.20" routeLength="80.50" waitingTime="0.00" waitingCount="0" stopTime="0.00" timeLoss="3.41" rerouteNo="0" devices="tripinfo_passenger22" vType="passenger" speedFactor="1.00" vaporized=""/>
    <tripinfo id="passenger16" depart="32.00" departLane="D1C1_0" departPos="5.10" departSpeed="0.00" departDelay="0.00" arrival="56.00" arrivalLane="C1C0_0" arrivalPos="85.60" arrivalSpeed="13.12" duration="24.00" routeLength="184.29" waitingTime="2.30" waitingCount="1" stopTime="0.00" timeLoss="9.23" rerouteNo="0" devices="tripinfo_passenger16" vType="passenger" speedFactor="0.95" vaporized=""/>
    <tripinfo id="passenger10" depart="20.00" departLane="B0B1_0" departPos="5.10" departSpeed="0.00" departDelay="0.00" arrival="56.40" arrivalLane="D1C1_0" arrivalPos="89.60" arrivalSpeed="13.90" duration="36.40" routeLength="373.40" waitingTime="0.00" waitingCount="0" stopTime="0.00" timeLoss="8.09" rerouteNo="0" devices="tripinfo_passenger10" vType="passenger" speedFactor="1.01" vaporized=""/>
    <tripinfo id="emergency1" depart="30.00" departLane="B1A1_0" departPos="6.60" departSpeed="0.00" departDelay="0.00" arrival="57.30" arrivalLane="B1C1_0" arrivalPos="85.60" arrivalSpeed="13.80" duration="27.30" routeLength="277.27" waitingTime="0.00" waitingCount="0" stopTime="0.00" timeLoss="6.42" rerouteNo="0" devices="tripinfo_emergency1" vType="emergency" speedFactor="1.00" vaporized=""/>
    <tripinfo id="passenger9" depart="18.00" departLane="A0A1_0" departPos="5.10" departSpeed="0.00" departDelay="0.00" arrival="62.20" arrivalLane="C0D0_0" arrivalPos="89.60" arrivalSpeed="14.56" duration="44.20" routeLength="479.10" waitingTime="0.00" waitingCount="0" stopTime="0.00" timeLoss="9.55" rerouteNo="0" devices="tripinfo_passenger9" vType="passenger" speedFactor="1.05" vaporized=""/>
    <tripinfo id="passenger13" depart="26.00" departLane="B0A0_0" departPos="5.10" departSpeed="0.00" departDelay="0.00" arrival="64.80" arrivalLane="B1C1_0" arrivalPos="85.60" arrivalSpeed="14.95" duration="38.80" routeLength="373.19" waitingTime="0.00" waitingCount="0" stopTime="0.00" timeLoss="11.71" rerouteNo="0" devices="tripinfo_passenger13" vType="passenger" speedFactor="1.08" vaporized=""/>
    <tripinfo id="passenger18" depart="36.00" departLane="B0A0_0" departPos="5.10" departSpeed="0.00" departDelay="0.00" arrival="66.00" arrivalLane="A1A0_0" arrivalPos="93.60" arrivalSpeed="14.62" duration="30.00" routeLength="278.95" waitingTime="0.00" waitingCount="0" stopTime="0.00" timeLoss="9.51" rerouteNo="0" devices="tripinfo_passenger18" vType="passenger" speedFactor="1.05" vaporized=""/>
    <tripinfo id="passenger17" depart="34.00" departLane="D1D0_0" departPos="5.10" departSpeed="0.00" departDelay="0.00" arrival="67.50" arrivalLane="C0D0_0" arrivalPos="89.60" arrivalSpeed="11.35" duration="33.50" routeLength="274.96" waitingTime="0.00" waitingCount="0" stopTime="0.00" timeLoss="7.42" rerouteNo="0" devices="tripinfo_passenger17" vType="passenger" speedFactor="0.82" vaporized=""/>
    <tripinfo id="passenger19" depart="38.30" departLane="B1A1_0" departPos="5.10" departSpeed="0.00" departDelay="0.30" arrival="67.70" arrivalLane="B1B0_0" arrivalPos="85.60" arrivalSpeed="13.49" duration="29.40" routeLength="273.40" waitingTime="0.00" waitingCount="0" stopTime="0.00" timeLoss="7.48" rerouteNo="0" devices="tripinfo_passenger19" vType="passenger" speedFactor="0.98" vaporized=""/>
    <tripinfo id="passenger29" depart="58.00" departLane="B0A0_0" departPos="5.10" departSpeed="0.00" departDelay="0.00" arrival="68.10" arrivalLane="B0A0_0" arrivalPos="89.60" arrivalSpeed="11.54" duration="10.10" routeLength="84.50" waitingTime="0.00" waitingCount="0" stopTime="0.00" timeLoss="2.74" rerouteNo="0" devices="tripinfo_passenger29" vType="passenger" speedFactor="0.83" vaporized=""/>
    <tripinfo id="passenger23" depart="50.90" departLane="C1C0_0" departPos="5.10" departSpeed="0.00" departDelay="4.90" arrival="69.60" arrivalLane="C0D0_0" arrivalPos="89.60" arrivalSpeed="14.03" duration="18.70" routeLength="184.29" waitingTime="0.00" waitingCount="0" stopTime="0.00" timeLoss="4.87" rerouteNo="0" devices="tripinfo_passenger23" vType="passenger" speedFactor="1.02" vaporized=""/>
    <tripinfo id="passenger8" depart="16.00" departLane="D1D0_0" departPos="5.10" departSpeed="0.00" departDelay="0.00" arrival="70.10" arrivalLane="C1C0_0" arrivalPos="85.60" arrivalSpeed="13.90" duration="54.10" routeLength="564.57" waitingTime="0.00" waitingCount="0" stopTime="0.00" timeLoss="10.98" rerouteNo="1" devices="tripinfo_passenger8" vType="passenger" speedFactor="1.00" vaporized=""/>
    <tripinfo id="passenger24" depart="52.20" departLane="A1B1_0" departPos="5.10" departSpeed="0.00" departDelay="4.20" arrival="70.70" arrivalLane="B1B0_0" arrivalPos="85.60" arrivalSpeed="14.60" duration="18.50" routeLength="179.13" waitingTime="0.00" waitingCount="0" stopTime="0.00" timeLoss="5.44" rerouteNo="0" devices="tripinfo_passenger24" vType="passenger" speedFactor="1.05" vaporized=""/>
    <tripinfo id="passenger31" depart="66.70" departLane="A1B1_0" departPos="5.10" departSpeed="0.00" departDelay="4.70" arrival="76.30" arrivalLane="A1B1_0" arrivalPos="89.60" arrivalSpeed="13.02" duration="9.60" routeLength="84.50" waitingTime="0.00" waitingCount="0" stopTime="0.00" timeLoss="3.07" rerouteNo="0" devices="tripinfo_passenger31" vType="passenger" speedFactor="0.94" vaporized=""/>
    <tripinfo id="passenger21" depart="42.00" departLane="D1C1_0" departPos="5.10" departSpeed="0.00" departDelay="0.00" arrival="80.60" arrivalLane="D0C0_0" arrivalPos="89.60" arrivalSpeed="14.92" duration="38.60" routeLength="367.14" waitingTime="0.00" waitingCount="0" stopTime="0.00" timeLoss="12.38" rerouteNo="0" devices="tripinfo_passenger21" vType="passenger" speedFactor="1.08" vaporized=""/>
    <tripinfo id="passenger25" depart="56.20" departLane="A1B1_0" departPos="5.10" departSpeed="0.00" departDelay="6.20" arrival="83.90" arrivalLane="B0A0_0" arrivalPos="89.60" arrivalSpeed="14.40" duration="27.70" routeLength="277.76" waitingTime="0.00" waitingCount="0" stopTime="0.00" timeLoss="7.15" rerouteNo="0" devices="tripinfo_passenger25" vType="passenger" speedFactor="1.05" vaporized=""/>
    <tripinfo id="passenger27" depart="54.00" departLane="C1C0_0" departPos="5.10" departSpeed="0.00" departDelay="0.00" arrival="86.30" arrivalLane="D0D1_0" arrivalPos="93.60" arrivalSpeed="11.28" duration="32.30" routeLength="285.63" waitingTime="0.00" waitingCount="0" stopTime="0.00" timeLoss="5.25" rerouteNo="0" devices="tripinfo_passenger27" vType="passenger" speedFactor="0.81" vaporized=""/>
    <tripinfo id="passenger38" depart="76.30" departLane="C1B1_0" departPos="5.10" departSpeed="0.00" departDelay="0.30" arrival="86.50" arrivalLane="C1B1_0" arrivalPos="85.60" arrivalSpeed="11.84" duration="10.20" routeLength="80.50" waitingTime="0.00" waitingCount="0" stopTime="0.00" timeLoss="5.11" rerouteNo="0" devices="tripinfo_passenger38" vType="passenger" speedFactor="1.15" vaporized=""/>
    <tripinfo id="passenger35" depart="70.90" departLane="B1C1_0" departPos="5.10" departSpeed="0.00" departDelay="0.90" arrival="88.40" arrivalLane="C1D1_0" arrivalPos="89.60" arrivalSpeed="12.87" duration="17.50" routeLength="184.50" waitingTime="0.00" waitingCount="0" stopTime="0.00" timeLoss="3.19" rerouteNo="0" devices="tripinfo_passenger35" vType="passenger" speedFactor="0.93" vaporized=""/>
    <tripinfo id="emergency2" depart="60.80" departLane="C0C1_0" departPos="6.60" departSpeed="0.00" departDelay="0.80" arrival="89.80" arrivalLane="D1C1_0" arrivalPos="89.60" arrivalSpeed="13.83" duration="29.00" routeLength="271.90" waitingTime="0.00" waitingCount="0" stopTime="0.00" timeLoss="7.74" rerouteNo="0" devices="tripinfo_emergency2" vType="emergency" speedFactor="1.00" vaporized=""/>
    <tripinfo id="passenger20" depart="42.10" departLane="A1A0_0" departPos="5.10" departSpeed="0.00" departDelay="2.10" arrival="89.90" arrivalLane="C1D1_0" arrivalPos="89.60" arrivalSpeed="13.65" duration="47.80" routeLength="482.95" waitingTime="0.00" waitingCount="0" stopTime="0.00" timeLoss="11.10" rerouteNo="0" devices="tripinfo_passenger20" vType="passenger" speedFactor="0.98" vaporized=""/>
    <tripinfo id="passenger32" depart="64.00" departLane="D1C1_0" departPos="5.10" departSpeed="0.00" departDelay="0.00" arrival="92.80" arrivalLane="B1C1_0" arrivalPos="85.60" arrivalSpeed="14.23" duration="28.80" routeLength="274.78" waitingTime="1.10" waitingCount="1" stopTime="0.00" timeLoss="8.68" rerouteNo="0" devices="tripinfo_passenger32" vType="passenger" speedFactor="1.03" vaporized=""/>
    <tripinfo id="passenger28" depart="56.00" departLane="C0C1_0" departPos="5.10" departSpeed="0.00" departDelay="0.00" arrival="94.10" arrivalLane="A1B1_0" arrivalPos="89.60" arrivalSpeed="12.90" duration="38.10" routeLength="378.56" waitingTime="0.00" waitingCount="0" stopTime="0.00" timeLoss="7.04" rerouteNo="0" devices="tripinfo_passenger28" vType="passenger" speedFactor="0.93" vaporized=""/>
    <tripinfo id="passenger26" depart="58.90" departLane="A1B1_0" departPos="5.10" departSpeed="0.00" departDelay="6.90" arrival="94.40" arrivalLane="C0C1_0" arrivalPos="85.60" arrivalSpeed="14.79" duration="35.50" routeLength="369.40" waitingTime="0.00" waitingCount="0" stopTime="0.00" timeLoss="8.94" rerouteNo="0" devices="tripinfo_passenger26" vType="passenger" speedFactor="1.07" vaporized=""/>
    <tripinfo id="passenger41" depart="82.00" departLane="B0B1_0" departPos="5.10" departSpeed="0.00" departDelay="0.00" arrival="103.10" arrivalLane="B1A1_0" arrivalPos="89.60" arrivalSpeed="11.85" duration="21.10" routeLength="184.29" waitingTime="0.00" waitingCount="0" stopTime="0.00" timeLoss="5.85" rerouteNo="0" devices="tripinfo_passenger41" vType="passenger" speedFactor="0.92" vaporized=""/>
    <tripinfo id="passenger30" depart="61.50" departLane="C1D1_0" departPos="5.10" departSpeed="0.00" departDelay="1.50" arrival="106.40" arrivalLane="A1A0_0" arrivalPos="93.60" arrivalSpeed="14.17" duration="44.90" routeLength="484.11" waitingTime="0.00" waitingCount="0" stopTime="0.00" timeLoss="9.22" rerouteNo="0" devices="tripinfo_passenger30" vType="passenger" speedFactor="1.03" vaporized=""/>
    <tripinfo id="passenger33" depart="67.70" departLane="B0B1_0" departPos="5.10" departSpeed="0.00" departDelay="1.70" arrival="107.30" arrivalLane="D1D0_0" arrivalPos="93.60" arrivalSpeed="14.29" duration="39.60" routeLength="375.31" waitingTime="1.30" waitingCount="1" stopTime="0.00" timeLoss="12.29" rerouteNo="0" devices="tripinfo_passenger33" vType="passenger" speedFactor="1.03" vaporized=""/>
    <tripinfo id="passenger45" depart="90.00" departLane="C1C0_0" departPos="5.10" departSpeed="0.00" departDelay="0.00" arrival="109.10" arrivalLane="C0C1_0" arrivalPos="85.60" arrivalSpeed="14.74" duration="19.10" routeLength="170.77" waitingTime="0.00" waitingCount="0" stopTime="0.00" timeLoss="6.54" rerouteNo="0" devices="tripinfo_passenger45" vType="passenger" speedFactor="1.07" vaporized=""/>
    <tripinfo id="passenger39" depart="78.00" departLane="B0B1_0" departPos="5.10" departSpeed="0.00" departDelay="0.00" arrival="110.20" arrivalLane="A1A0_0" arrivalPos="93.60" arrivalSpeed="13.34" duration="32.20" routeLength="285.63" waitingTime="0.30" waitingCount="1" stopTime="0.00" timeLoss="9.29" rerouteNo="0" devices="tripinfo_passenger39" vType="passenger" speedFactor="0.96" vaporized=""/>
    <tripinfo id="passenger34" depart="69.30" departLane="A1B1_0" departPos="5.10" departSpeed="0.00" departDelay="1.30" arrival="112.80" arrivalLane="D0C0_0" arrivalPos="89.60" arrivalSpeed="14.13" duration="43.50" routeLength="476.86" waitingTime="0.00" waitingCount="0" stopTime="0.00" timeLoss="9.10" rerouteNo="0" devices="tripinfo_passenger34" vType="passenger" speedFactor="1.03" vaporized=""/>
    <tripinfo id="passenger37" depart="74.00" departLane="C0D0_0" departPos="5.10" departSpeed="0.00" departDelay="0.00" arrival="115.00" arrivalLane="C1D1_0" arrivalPos="89.60" arrivalSpeed="12.40" duration="41.00" routeLength="372.03" waitingTime="0.00" waitingCount="0" stopTime="0.00" timeLoss="8.39" rerouteNo="0" devices="tripinfo_passenger37" vType="passenger" speedFactor="0.89" vaporized=""/>
    <tripinfo id="passenger47" depart="96.40" departLane="B1A1_0" departPos="5.10" departSpeed="0.00" departDelay="2.40" arrival="115.30" arrivalLane="A1A0_0" arrivalPos="93.60" arrivalSpeed="14.23" duration="18.90" routeLength="185.84" waitingTime="0.00" waitingCount="0" stopTime="0.00" timeLoss="5.21" rerouteNo="0" devices="tripinfo_passenger47" vType="passenger" speedFactor="1.03" vaporized=""/>
    <tripinfo id="passenger49" depart="101.60" departLane="B1C1_0" departPos="5.10" departSpeed="0.00" departDelay="3.60" arrival="120.90" arrivalLane="C1B1_0" arrivalPos="85.60" arrivalSpeed="16.00" duration="19.30" routeLength="170.78" waitingTime="0.00" waitingCount="0" stopTime="0.00" timeLoss="7.84" rerouteNo="0" devices="tripinfo_passenger49" vType="passenger" speedFactor="1.15" vaporized=""/>
    <tripinfo id="passenger46" depart="94.40" departLane="C1B1_0" departPos="5.10" departSpeed="0.00" departDelay="2.40" arrival="123.50" arrivalLane="A1A0_0" arrivalPos="93.60" arrivalSpeed="12.24" duration="29.10" routeLength="285.84" waitingTime="0.00" waitingCount="0" stopTime="0.00" timeLoss="5.06" rerouteNo="0" devices="tripinfo_passenger46" vType="passenger" speedFactor="0.89" vaporized=""/>
    <tripinfo id="passenger48" depart="96.00" departLane="B1C1_0" departPos="5.10" departSpeed="0.00" departDelay="0.00" arrival="123.80" arrivalLane="B1A1_0" arrivalPos="89.60" arrivalSpeed="13.08" duration="27.80" routeLength="274.78" waitingTime="0.00" waitingCount="0" stopTime="0.00" timeLoss="5.91" rerouteNo="0" devices="tripinfo_passenger48" vType="passenger" speedFactor="0.95" vaporized=""/>
    <tripinfo id="passenger36" depart="75.50" departLane="D0C0_0" departPos="5.10" departSpeed="0.00" departDelay="3.50" arrival="126.00" arrivalLane="A1A0_0" arrivalPos="93.60" arrivalSpeed="14.16" duration="50.50" routeLength="482.95" waitingTime="4.90" waitingCount="1" stopTime="0.00" timeLoss="15.16" rerouteNo="0" devices="tripinfo_passenger36" vType="passenger" speedFactor="1.02" vaporized=""/>
    <tripinfo id="emergency3" depart="90.00" departLane="A1B1_0" departPos="6.60" departSpeed="0.00" departDelay="0.00" arrival="127.00" arrivalLane="C0B0_0" arrivalPos="85.60" arrivalSpeed="13.88" duration="37.00" routeLength="372.26" waitingTime="0.00" waitingCount="0" stopTime="0.00" timeLoss="8.70" rerouteNo="0" devices="tripinfo_emergency3" vType="emergency" speedFactor="1.00" vaporized=""/>
    <tripinfo id="passenger43" depart="86.00" departLane="D0D1_0" departPos="5.10" departSpeed="0.00" departDelay="0.00" arrival="130.50" arrivalLane="C0C1_0" arrivalPos="85.60" arrivalSpeed="12.58" duration="44.50" routeLength="373.58" waitingTime="1.90" waitingCount="1" stopTime="0.00" timeLoss="12.40" rerouteNo="0" devices="tripinfo_passenger43" vType="passenger" speedFactor="0.91" vaporized=""/>
    <tripinfo id="passenger40" depart="80.00" departLane="B0A0_0" departPos="5.10" departSpeed="0.00" departDelay="0.00" arrival="135.50" arrivalLane="C1B1_0" arrivalPos="85.60" arrivalSpeed="11.07" duration="55.50" routeLength="463.47" waitingTime="0.00" waitingCount="0" stopTime="0.00" timeLoss="9.42" rerouteNo="1" devices="tripinfo_passenger40" vType="passenger" speedFactor="0.80" vaporized=""/>
    <tripinfo id="passenger56" depart="114.10" departLane="D0C0_0" departPos="5.10" departSpeed="0.00" departDelay="2.10" arrival="138.00" arrivalLane="B0A0_0" arrivalPos="89.60" arrivalSpeed="14.81" duration="23.90" routeLength="288.50" waitingTime="0.00" waitingCount="0" stopTime="0.00" timeLoss="4.43" rerouteNo="0" devices="tripinfo_passenger56" vType="passenger" speedFactor="1.07" vaporized=""/>
    <tripinfo id="passenger54" depart="108.00" departLane="A0B0_0" departPos="5.10" departSpeed="0.00" departDelay="0.00" arrival="138.50" arrivalLane="B1B0_0" arrivalPos="85.60" arrivalSpeed="12.81" duration="30.50" routeLength="274.56" waitingTime="0.00" waitingCount="0" stopTime="0.00" timeLoss="7.14" rerouteNo="0" devices="tripinfo_passenger54" vType="passenger" speedFactor="0.92" vaporized=""/>
    <tripinfo id="passenger42" depart="84.00" departLane="B1A1_0" departPos="5.10" departSpeed="0.00" departDelay="0.00" arrival="138.90" arrivalLane="B0B1_0" arrivalPos="85.60" arrivalSpeed="14.00" duration="54.90" routeLength="363.67" waitingTime="14.00" waitingCount="2" stopTime="0.00" timeLoss="27.00" rerouteNo="0" devices="tripinfo_passenger42" vType="passenger" speedFactor="1.03" vaporized=""/>
    <tripinfo id="passenger53" depart="106.00" departLane="C0B0_0" departPos="5.10" departSpeed="0.00" departDelay="0.00" arrival="145.40" arrivalLane="B1C1_0" arrivalPos="85.60" arrivalSpeed="6.82" duration="39.40" routeLength="269.76" waitingTime="1.90" waitingCount="1" stopTime="0.00" timeLoss="17.81" rerouteNo="1" devices="tripinfo_passenger53" vType="passenger" speedFactor="0.97" vaporized=""/>
    <tripinfo id="passenger61" depart="122.00" departLane="D0C0_0" departPos="5.10" departSpeed="0.00" departDelay="0.00" arrival="146.40" arrivalLane="B0B1_0" arrivalPos="85.60" arrivalSpeed="15.22" duration="24.40" routeLength="279.13" waitingTime="0.00" waitingCount="0" stopTime="0.00" timeLoss="5.40" rerouteNo="0" devices="tripinfo_passenger61" vType="passenger" speedFactor="1.10" vaporized=""/>
    <tripinfo id="passenger62" depart="124.40" departLane="C0C1_0" departPos="5.10" departSpeed="0.00" departDelay="0.40" arrival="153.30" arrivalLane="B1C1_0" arrivalPos="85.60" arrivalSpeed="11.11" duration="28.90" routeLength="270.57" waitingTime="0.00" waitingCount="0" stopTime="0.00" timeLoss="10.62" rerouteNo="0" devices="tripinfo_passenger62" vType="passenger" speedFactor="1.16" vaporized=""/>
    <tripinfo id="emergency4" depart="120.00" departLane="D1D0_0" departPos="6.60" departSpeed="0.00" departDelay="0.00" arrival="154.10" arrivalLane="B0A0_0" arrivalPos="89.60" arrivalSpeed="13.81" duration="34.10" routeLength="383.18" waitingTime="0.00" waitingCount="0" stopTime="0.00" timeLoss="6.08" rerouteNo="0" devices="tripinfo_emergency4" vType="emergency" speedFactor="1.00" vaporized=""/>
    <tripinfo id="passenger50" depart="100.00" departLane="B1A1_0" departPos="5.10" departSpeed="0.00" departDelay="0.00" arrival="155.90" arrivalLane="D0D1_0" arrivalPos="93.60" arrivalSpeed="14.93" duration="55.90" routeLength="577.22" waitingTime="0.00" waitingCount="0" stopTime="0.00" timeLoss="15.11" rerouteNo="0" devices="tripinfo_passenger50" vType="passenger" speedFactor="1.08" vaporized=""/>
    <tripinfo id="passenger63" depart="126.00" departLane="D1D0_0" departPos="5.10" departSpeed="0.00" departDelay="0.00" arrival="158.80" arrivalLane="B0A0_0" arrivalPos="89.60" arrivalSpeed="14.97" duration="32.80" routeLength="384.68" waitingTime="0.00" waitingCount="0" stopTime="0.00" timeLoss="6.85" rerouteNo="0" devices="tripinfo_passenger63" vType="passenger" speedFactor="1.08" vaporized=""/>
    <tripinfo id="passenger65" depart="133.00" departLane="C0B0_0" departPos="5.10" departSpeed="0.00" departDelay="3.00" arrival="159.10" arrivalLane="A0A1_0" arrivalPos="93.60" arrivalSpeed="14.38" duration="26.10" routeLength="280.68" waitingTime="0.00" waitingCount="0" stopTime="0.00" timeLoss="6.23" rerouteNo="0" devices="tripinfo_passenger65" vType="passenger" speedFactor="1.04" vaporized=""/>
    <tripinfo id="passenger51" depart="107.20" departLane="B1B0_0" departPos="5.10" departSpeed="0.00" departDelay="5.20" arrival="160.80" arrivalLane="A1B1_0" arrivalPos="89.60" arrivalSpeed="14.66" duration="53.60" routeLength="367.49" waitingTime="7.40" waitingCount="1" stopTime="0.00" timeLoss="27.03" rerouteNo="0" devices="tripinfo_passenger51" vType="passenger" speedFactor="1.06" vaporized=""/>
    <tripinfo id="passenger58" depart="121.40" departLane="B0B1_0" departPos="5.10" departSpeed="0.00" departDelay="5.40" arrival="164.10" arrivalLane="B0A0_0" arrivalPos="89.60" arrivalSpeed="12.79" duration="42.70" routeLength="269.40" waitingTime="9.70" waitingCount="1" stopTime="0.00" timeLoss="20.05" rerouteNo="0" devices="tripinfo_passenger58" vType="passenger" speedFactor="0.93" vaporized=""/>
    <tripinfo id="passenger64" depart="128.00" departLane="C0C1_0" departPos="5.10" departSpeed="0.00" departDelay="0.00" arrival="166.20" arrivalLane="A1B1_0" arrivalPos="89.60" arrivalSpeed="12.83" duration="38.20" routeLength="378.56" waitingTime="0.00" waitingCount="0" stopTime="0.00" timeLoss="7.16" rerouteNo="0" devices="tripinfo_passenger64" vType="passenger" speedFactor="0.93" vaporized=""/>
    <tripinfo id="passenger67" depart="134.00" departLane="C0D0_0" departPos="5.10" departSpeed="0.00" departDelay="0.00" arrival="167.70" arrivalLane="B0B1_0" arrivalPos="85.60" arrivalSpeed="16.01" duration="33.70" routeLength="373.40" waitingTime="0.00" waitingCount="0" stopTime="0.00" timeLoss="8.86" rerouteNo="0" devices="tripinfo_passenger67" vType="passenger" speedFactor="1.15" vaporized=""/>
    <tripinfo id="passenger72" depart="147.30" departLane="B1C1_0" departPos="5.10" departSpeed="0.00" departDelay="3.30" arrival="167.90" arrivalLane="C1C0_0" arrivalPos="85.60" arrivalSpeed="9.00" duration="20.60" routeLength="175.13" waitingTime="0.00" waitingCount="0" stopTime="0.00" timeLoss="8.47" rerouteNo="0" devices="tripinfo_passenger72" vType="passenger" speedFactor="1.11" vaporized=""/>
    <tripinfo id="passenger66" depart="139.30" departLane="D0C0_0" departPos="5.10" departSpeed="0.00" departDelay="7.30" arrival="168.70" arrivalLane="D0D1_0" arrivalPos="93.60" arrivalSpeed="13.90" duration="29.40" routeLength="280.12" waitingTime="0.00" waitingCount="0" stopTime="0.00" timeLoss="7.69" rerouteNo="0" devices="tripinfo_passenger66" vType="passenger" speedFactor="1.00" vaporized=""/>
    <tripinfo id="passenger59" depart="121.30" departLane="B1C1_0" departPos="5.10" departSpeed="0.00" departDelay="3.30" arrival="169.10" arrivalLane="A1B1_0" arrivalPos="89.60" arrivalSpeed="14.24" duration="47.80" routeLength="369.05" waitingTime="8.30" waitingCount="1" stopTime="0.00" timeLoss="20.20" rerouteNo="0" devices="tripinfo_passenger59" vType="passenger" speedFactor="1.03" vaporized=""/>
    <tripinfo id="passenger75" depart="150.00" departLane="C1C0_0" departPos="5.10" departSpeed="0.00" departDelay="0.00" arrival="172.90" arrivalLane="C0B0_0" arrivalPos="85.60" arrivalSpeed="12.99" duration="22.90" routeLength="175.13" waitingTime="1.60" waitingCount="1" stopTime="0.00" timeLoss="8.69" rerouteNo="0" devices="tripinfo_passenger75" vType="passenger" speedFactor="0.94" vaporized=""/>
    <tripinfo id="passenger68" depart="136.00" departLane="A1B1_0" departPos="5.10" departSpeed="0.00" departDelay="0.00" arrival="176.00" arrivalLane="B0B1_0" arrivalPos="85.60" arrivalSpeed="11.01" duration="40.00" routeLength="269.40" waitingTime="0.90" waitingCount="1" stopTime="0.00" timeLoss="16.70" rerouteNo="0" devices="tripinfo_passenger68" vType="passenger" speedFactor="0.90" vaporized=""/>
    <tripinfo id="passenger73" depart="146.00" departLane="A1A0_0" departPos="5.10" departSpeed="0.00" departDelay="0.00" arrival="176.70" arrivalLane="A1B1_0" arrivalPos="89.60" arrivalSpeed="13.60" duration="30.70" routeLength="278.95" waitingTime="0.00" waitingCount="0" stopTime="0.00" timeLoss="8.81" rerouteNo="0" devices="tripinfo_passenger73" vType="passenger" speedFactor="0.98" vaporized=""/>
    <tripinfo id="passenger55" depart="113.50" departLane="A1B1_0" departPos="5.10" departSpeed="0.00" departDelay="3.50" arrival="177.10" arrivalLane="D0D1_0" arrivalPos="93.60" arrivalSpeed="12.03" duration="63.60" routeLength="482.95" waitingTime="4.00" waitingCount="1" stopTime="0.00" timeLoss="22.17" rerouteNo="0" devices="tripinfo_passenger55" vType="passenger" speedFactor="0.87" vaporized=""/>