<?xml version="1.0" encoding="UTF-8"?>

<!-- generated on Mon May  3 15:35:06 2021 by Eclipse SUMO Version 1.1.0
<configuration xmlns:xsi="http://www.w3.org/2001/XMLSchema-instance" xsi:noNamespaceSchemaLocation="http://sumo.dlr.de/xsd/sumoConfiguration.xsd">

    <input>
        <net-file value="contrib/ndn4ivc/traces/square-map/map.net.xml"/>
        <route-files value="contrib/ndn4ivc/traces/square-map/passenger_routes.rou.xml,contrib/ndn4ivc/traces/square-map/emergency_routes.rou.xml,contrib/ndn4ivc/traces/square-map/passenger_accident.xml"/>
    </input>

    <output>
        <emission-output value="contrib/ndn4ivc/traces/square-map/sumo-output.emission.xml"/>
        <tripinfo-output value="contrib/ndn4ivc/traces/square-map/sumo-output.tripinfo.xml"/>
    </output>

    <time>
        <begin value="0"/>
        <end value="3600"/>
        <step-length value="0.100000"/>
    </time>

    <report>
        <verbose value="true"/>
        <error-log value="contrib/ndn4ivc/traces/square-map/SumoError.log"/>
        <no-step-log value="true"/>
    </report>

    <traci_server>
        <remote-port value="3419"/>
    </traci_server>

    <random_number>
        <seed value="10"/>
    </random_number>

    <gui_only>
        <gui-settings-file value="contrib/ndn4ivc/traces/square-map/settings.xml"/>
        <quit-on-end value="true"/>
        <start value="true"/>
        <tracker-interval value="0.1"/>
    </gui_only>

</configuration>
-->

<tripinfos xmlns:xsi="http://www.w3.org/2001/XMLSchema-instance" xsi:noNamespaceSchemaLocation="http://sumo.dlr.de/xsd/tripinfo_file.xsd">
    <tripinfo id="passenger13" depart="26.00" departLane="C0D0_0" departPos="5.10" departSpeed="0.00" departDelay="0.00" arrival="45.60" arrivalLane="D0C0_0" arrivalPos="89.60" arrivalSpeed="15.04" duration="19.60" routeLength="178.77" waitingTime="0.00" waitingCount="0" stopTime="0.00" timeLoss="6.83" rerouteNo="0" devices="tripinfo_passenger13" vType="passenger" speedFactor="1.08" vaporized=""/>
    <tripinfo id="passenger11" depart="22.00" departLane="A1B1_0" departPos="5.10" departSpeed="0.00" departDelay="0.00" arrival="48.50" arrivalLane="C1B1_0" arrivalPos="85.60" arrivalSpeed="14.36" duration="26.50" routeLength="274.78" waitingTime="0.00" waitingCount="0" stopTime="0.00" timeLoss="6.40" rerouteNo="0" devices="tripinfo_passenger11" vType="passenger" speedFactor="1.04" vaporized=""/>
    <tripinfo id="passenger1" depart="2.00" departLane="B1C1_0" departPos="5.10" departSpeed="0.00" departDelay="0.00" arrival="50.60" arrivalLane="B0B1_0" arrivalPos="85.60" arrivalSpeed="12.41" duration="48.60" routeLength="360.84" waitingTime="4.50" waitingCount="2" stopTime="0.00" timeLoss="18.82" rerouteNo="0" devices="tripinfo_passenger1" vType="passenger" speedFactor="0.96" vaporized=""/>
    <tripinfo id="passenger9" depart="18.00" departLane="C1B1_0" departPos="5.10" departSpeed="0.00" departDelay="0.00" arrival="52.40" arrivalLane="B0A0_0" arrivalPos="89.60" arrivalSpeed="14.61" duration="34.40" routeLength="278.92" waitingTime="2.90" waitingCount="1" stopTime="0.00" timeLoss="13.96" rerouteNo="0" devices="tripinfo_passenger9" vType="passenger" speedFactor="1.05" vaporized=""/>
    <tripinfo id="passenger4" depart="8.00" departLane="C0D0_0" departPos="5.10" departSpeed="0.00" departDelay="0.00" arrival="57.30" arrivalLane="B1B0_0" arrivalPos="85.60" arrivalSpeed="12.62" duration="49.30" routeLength="463.67" waitingTime="0.00" waitingCount="0" stopTime="0.00" timeLoss="9.73" rerouteNo="0" devices="tripinfo_passenger4" vType="passenger" speedFactor="0.91" vaporized=""/>
    <tripinfo id="passenger2" depart="4.00" departLane="A0A1_0" departPos="5.10" departSpeed="0.00" departDelay="0.00" arrival="57.60" arrivalLane="D0D1_0" arrivalPos="93.60" arrivalSpeed="14.58" duration="53.60" routeLength="579.13" waitingTime="0.00" waitingCount="0" stopTime="0.00" timeLoss="12.17" rerouteNo="0" devices="tripinfo_passenger2" vType="passenger" speedFactor="1.05" vaporized=""/>
    <tripinfo id="passenger14" depart="28.00" departLane="A1B1_0" departPos="5.10" departSpeed="0.00" departDelay="0.00" arrival="62.90" arrivalLane="C0B0_0" arrivalPos="85.60" arrivalSpeed="14.44" duration="34.90" routeLength="373.76" waitingTime="0.00" waitingCount="0" stopTime="0.00" timeLoss="7.61" rerouteNo="0" devices="tripinfo_passenger14" vType="passenger" speedFactor="1.04" vaporized=""/>
    <tripinfo id="passenger17" depart="34.00" departLane="C1C0_0" departPos="5.10" departSpeed="0.00" departDelay="0.00" arrival="66.30" arrivalLane="C1D1_0" arrivalPos="89.60" arrivalSpeed="11.25" duration="32.30" routeLength="269.40" waitingTime="0.00" waitingCount="0" stopTime="0.00" timeLoss="6.54" rerouteNo="0" devices="tripinfo_passenger17" vType="passenger" speedFactor="0.82" vaporized=""/>
    <tripinfo id="passenger5" depart="10.60" departLane="C0D0_0" departPos="5.10" departSpeed="0.00" departDelay="0.60" arrival="67.50" arrivalLane="A1A0_0" arrivalPos="93.60" arrivalSpeed="15.06" duration="56.90" routeLength="577.22" waitingTime="0.00" waitingCount="0" stopTime="0.00" timeLoss="16.64" rerouteNo="0" devices="tripinfo_passenger5" vType="passenger" speedFactor="1.09" vaporized=""/>
    <tripinfo id="passenger21" depart="42.00" departLane="C1C0_0" departPos="5.10" departSpeed="0.00" departDelay="0.00" arrival="69.50" arrivalLane="D0D1_0" arrivalPos="93.60" arrivalSpeed="14.89" duration="27.50" routeLength="285.63" waitingTime="0.00" waitingCount="0" stopTime="0.00" timeLoss="7.13" rerouteNo="0" devices="tripinfo_passenger21" vType="passenger" speedFactor="1.08" vaporized=""/>
    <tripinfo id="passenger16" depart="32.00" departLane="D1D0_0" departPos="5.10" departSpeed="0.00" departDelay="0.00" arrival="71.30" arrivalLane="C1D1_0" arrivalPos="89.60" arrivalSpeed="13.20" duration="39.30" routeLength="373.94" waitingTime="0.00" waitingCount="0" stopTime="0.00" timeLoss="8.95" rerouteNo="0" devices="tripinfo_passenger16" vType="passenger" speedFactor="0.95" vaporized=""/>
    <tripinfo id="passenger6" depart="12.00" departLane="B1C1_0" departPos="5.10" departSpeed="0.00" departDelay="0.00" arrival="71.80" arrivalLane="A0A1_0" arrivalPos="93.60" arrivalSpeed="12.85" duration="59.80" routeLength="465.38" waitingTime="2.20" waitingCount="2" stopTime="0.00" timeLoss="20.50" rerouteNo="0" devices="tripinfo_passenger6" vType="passenger" speedFactor="0.93" vaporized=""/>
    <tripinfo id="passenger24" depart="53.70" departLane="B1C1_0" departPos="5.10" departSpeed="0.00" departDelay="5.70" arrival="73.20" arrivalLane="C1B1_0" arrivalPos="85.60" arrivalSpeed="14.63" duration="19.50" routeLength="170.78" waitingTime="0.00" waitingCount="0" stopTime="0.00" timeLoss="6.93" rerouteNo="0" devices="tripinfo_passenger24" vType="passenger" speedFactor="1.05" vaporized=""/>
    <tripinfo id="passenger10" depart="20.50" departLane="C1D1_0" departPos="5.10" departSpeed="0.00" departDelay="0.50" arrival="74.10" arrivalLane="C0B0_0" arrivalPos="85.60" arrivalSpeed="13.98" duration="53.60" routeLength="373.19" waitingTime="8.30" waitingCount="2" stopTime="0.00" timeLoss="24.59" rerouteNo="0" devices="tripinfo_passenger10" vType="passenger" speedFactor="1.01" vaporized=""/>
    <tripinfo id="passenger20" depart="40.00" departLane="C0B0_0" departPos="5.10" departSpeed="0.00" departDelay="0.00" arrival="76.90" arrivalLane="A1B1_0" arrivalPos="89.60" arrivalSpeed="13.59" duration="36.90" routeLength="372.86" waitingTime="0.00" waitingCount="0" stopTime="0.00" timeLoss="8.68" rerouteNo="0" devices="tripinfo_passenger20" vType="passenger" speedFactor="0.98" vaporized=""/>
    <tripinfo id="passenger15" depart="31.40" departLane="B1A1_0" departPos="5.10" departSpeed="0.00" departDelay="1.40" arrival="79.20" arrivalLane="C0C1_0" arrivalPos="85.60" arrivalSpeed="15.46" duration="47.80" routeLength="463.67" waitingTime="0.00" waitingCount="0" stopTime="0.00" timeLoss="15.43" rerouteNo="0" devices="tripinfo_passenger15" vType="passenger" speedFactor="1.11" vaporized=""/>
    <tripinfo id="passenger36" depart="72.00" departLane="A0A1_0" departPos="5.10" departSpeed="0.00" departDelay="0.00" arrival="81.70" arrivalLane="A0A1_0" arrivalPos="93.60" arrivalSpeed="14.12" duration="9.70" routeLength="88.50" waitingTime="0.00" waitingCount="0" stopTime="0.00" timeLoss="3.42" rerouteNo="0" devices="tripinfo_passenger36" vType="passenger" speedFactor="1.02" vaporized=""/>
    <tripinfo id="passenger27" depart="54.00" departLane="D1D0_0" departPos="5.10" departSpeed="0.00" departDelay="0.00" arrival="84.40" arrivalLane="C0B0_0" arrivalPos="85.60" arrivalSpeed="11.25" duration="30.40" routeLength="280.68" waitingTime="0.00" waitingCount="0" stopTime="0.00" timeLoss="4.95" rerouteNo="0" devices="tripinfo_passenger27" vType="passenger" speedFactor="0.81" vaporized=""/>
    <tripinfo id="passenger19" depart="38.00" departLane="A1A0_0" departPos="5.10" departSpeed="0.00" departDelay="0.00" arrival="85.40" arrivalLane="C1C0_0" arrivalPos="85.60" arrivalSpeed="13.52" duration="47.40" routeLength="474.89" waitingTime="0.00" waitingCount="0" stopTime="0.00" timeLoss="9.38" rerouteNo="1" devices="tripinfo_passenger19" vType="passenger" speedFactor="0.98" vaporized=""/>
    <tripinfo id="emergency1" depart="30.00" departLane="D0D1_0" departPos="6.60" departSpeed="0.00" departDelay="0.00" arrival="88.40" arrivalLane="A0A1_0" arrivalPos="93.60" arrivalSpeed="8.77" duration="58.40" routeLength="577.63" waitingTime="0.00" waitingCount="0" stopTime="0.00" timeLoss="15.01" rerouteNo="0" devices="tripinfo_emergency1" vType="emergency" speedFactor="1.00" vaporized=""/>
    <tripinfo id="passenger30" depart="61.30" departLane="A1A0_0" departPos="5.10" departSpeed="0.00" departDelay="1.30" arrival="89.10" arrivalLane="B0B1_0" arrivalPos="85.60" arrivalSpeed="14.13" duration="27.80" routeLength="285.63" waitingTime="0.00" waitingCount="0" stopTime="0.00" timeLoss="6.38" rerouteNo="0" devices="tripinfo_passenger30" vType="passenger" speedFactor="1.03" vaporized=""/>
    <tripinfo id="passenger12" depart="25.20" departLane="B0A0_0" departPos="5.10" departSpeed="0.00" departDelay="1.20" arrival="90.30" arrivalLane="D1C1_0" arrivalPos="89.60" arrivalSpeed="12.47" duration="65.10" routeLength="571.46" waitingTime="2.10" waitingCount="1" stopTime="0.00" timeLoss="15.76" rerouteNo="1" devices="tripinfo_passenger12" vType="passenger" speedFactor="0.91" vaporized=""/>
    <tripinfo id="emergency2" depart="63.50" departLane="C0B0_0" departPos="6.60" departSpeed="0.00" departDelay="3.50" arrival="90.80" arrivalLane="A0A1_0" arrivalPos="93.60" arrivalSpeed="13.76" duration="27.30" routeLength="279.18" waitingTime="0.00" waitingCount="0" stopTime="0.00" timeLoss="6.76" rerouteNo="0" devices="tripinfo_emergency2" vType="emergency" speedFactor="1.00" vaporized=""/>
    <tripinfo id="passenger25" depart="54.60" departLane="D0C0_0" departPos="5.10" departSpeed="0.00" departDelay="4.60" arrival="93.30" arrivalLane="D1C1_0" arrivalPos="89.60" arrivalSpeed="14.43" duration="38.70" routeLength="377.46" waitingTime="0.00" waitingCount="0" stopTime="0.00" timeLoss="10.38" rerouteNo="0" devices="tripinfo_passenger25" vType="passenger" speedFactor="1.05" vaporized=""/>
    <tripinfo id="passenger26" depart="57.20" departLane="D0C0_0" departPos="5.10" departSpeed="0.00" departDelay="5.20" arrival="93.60" arrivalLane="B1A1_0" arrivalPos="89.60" arrivalSpeed="14.79" duration="36.40" routeLength="382.92" waitingTime="0.00" waitingCount="0" stopTime="0.00" timeLoss="9.02" rerouteNo="0" devices="tripinfo_passenger26" vType="passenger" speedFactor="1.07" vaporized=""/>
    <tripinfo id="passenger42" depart="84.40" departLane="B0A0_0" departPos="5.10" departSpeed="0.00" departDelay="0.40" arrival="94.90" arrivalLane="B0A0_0" arrivalPos="89.60" arrivalSpeed="11.54" duration="10.50" routeLength="84.50" waitingTime="0.00" waitingCount="0" stopTime="0.00" timeLoss="4.59" rerouteNo="0" devices="tripinfo_passenger42" vType="passenger" speedFactor="1.03" vaporized=""/>
    <tripinfo id="passenger18" depart="39.60" departLane="A0B0_0" departPos="5.10" departSpeed="0.00" departDelay="3.60" arrival="101.40" arrivalLane="D0D1_0" arrivalPos="93.60" arrivalSpeed="10.78" duration="61.80" routeLength="578.68" waitingTime="0.00" waitingCount="0" stopTime="0.00" timeLoss="18.71" rerouteNo="1" devices="tripinfo_passenger18" vType="passenger" speedFactor="1.05" vaporized=""/>
    <tripinfo id="passenger28" depart="57.80" departLane="B0A0_0" departPos="5.10" departSpeed="0.00" departDelay="1.80" arrival="103.10" arrivalLane="B0B1_0" arrivalPos="85.60" arrivalSpeed="5.09" duration="45.30" routeLength="278.56" waitingTime="4.70" waitingCount="2" stopTime="0.00" timeLoss="22.00" rerouteNo="0" devices="tripinfo_passenger28" vType="passenger" speedFactor="0.93" vaporized=""/>
    <tripinfo id="passenger43" depart="86.00" departLane="C0C1_0" departPos="5.10" departSpeed="0.00" departDelay="0.00" arrival="106.40" arrivalLane="C1C0_0" arrivalPos="85.60" arrivalSpeed="12.52" duration="20.40" routeLength="170.77" waitingTime="0.00" waitingCount="0" stopTime="0.00" timeLoss="5.68" rerouteNo="0" devices="tripinfo_passenger43" vType="passenger" speedFactor="0.91" vaporized=""/>
    <tripinfo id="passenger31" depart="64.00" departLane="C1C0_0" departPos="5.10" departSpeed="0.00" departDelay="2.00" arrival="108.90" arrivalLane="B0B1_0" arrivalPos="85.60" arrivalSpeed="5.97" duration="44.90" routeLength="269.76" waitingTime="1.70" waitingCount="1" stopTime="0.00" timeLoss="22.67" rerouteNo="0" devices="tripinfo_passenger31" vType="passenger" speedFactor="0.94" vaporized=""/>
    <tripinfo id="passenger35" depart="73.30" departLane="B1B0_0" departPos="5.10" departSpeed="0.00" departDelay="3.30" arrival="113.30" arrivalLane="B1B0_0" arrivalPos="85.60" arrivalSpeed="5.00" duration="40.00" routeLength="80.50" waitingTime="23.20" waitingCount="1" stopTime="0.00" timeLoss="33.76" rerouteNo="0" devices="tripinfo_passenger35" vType="passenger" speedFactor="0.93" vaporized=""/>
    <tripinfo id="passenger29" depart="62.90" departLane="B0B1_0" departPos="5.10" departSpeed="0.00" departDelay="4.90" arrival="115.40" arrivalLane="D0D1_0" arrivalPos="93.60" arrivalSpeed="11.53" duration="52.50" routeLength="473.58" waitingTime="0.00" waitingCount="0" stopTime="0.00" timeLoss="9.01" rerouteNo="0" devices="tripinfo_passenger29" vType="passenger" speedFactor="0.83" vaporized=""/>
    <tripinfo id="passenger34" depart="68.40" departLane="C0D0_0" departPos="5.10" departSpeed="0.00" departDelay="0.40" arrival="119.50" arrivalLane="B1A1_0" arrivalPos="89.60" arrivalSpeed="14.24" duration="51.10" routeLength="477.19" waitingTime="0.00" waitingCount="0" stopTime="0.00" timeLoss="15.12" rerouteNo="0" devices="tripinfo_passenger34" vType="passenger" speedFactor="1.03" vaporized=""/>
    <tripinfo id="passenger41" depart="84.40" departLane="A0A1_0" departPos="5.10" departSpeed="0.00" departDelay="2.40" arrival="122.20" arrivalLane="C1C0_0" arrivalPos="85.60" arrivalSpeed="12.73" duration="37.80" routeLength="375.31" waitingTime="0.00" waitingCount="0" stopTime="0.00" timeLoss="7.03" rerouteNo="0" devices="tripinfo_passenger41" vType="passenger" speedFactor="0.92" vaporized=""/>
    <tripinfo id="passenger48" depart="96.00" departLane="C0B0_0" departPos="5.10" departSpeed="0.00" departDelay="0.00" arrival="124.00" arrivalLane="A0B0_0" arrivalPos="89.60" arrivalSpeed="13.14" duration="28.00" routeLength="278.77" waitingTime="0.00" waitingCount="0" stopTime="0.00" timeLoss="5.77" rerouteNo="0" devices="tripinfo_passenger48" vType="passenger" speedFactor="0.95" vaporized=""/>
    <tripinfo id="emergency3" depart="90.00" departLane="B1B0_0" departPos="6.60" departSpeed="0.00" departDelay="0.00" arrival="124.00" arrivalLane="B0A0_0" arrivalPos="89.60" arrivalSpeed="13.86" duration="34.00" routeLength="177.63" waitingTime="7.60" waitingCount="1" stopTime="0.00" timeLoss="20.53" rerouteNo="0" devices="tripinfo_emergency3" vType="emergency" speedFactor="1.00" vaporized=""/>
    <tripinfo id="passenger37" depart="74.70" departLane="A0A1_0" departPos="5.10" departSpeed="0.00" departDelay="0.70" arrival="125.00" arrivalLane="C0D0_0" arrivalPos="89.60" arrivalSpeed="12.30" duration="50.30" routeLength="479.10" waitingTime="0.00" waitingCount="0" stopTime="0.00" timeLoss="9.66" rerouteNo="0" devices="tripinfo_passenger37" vType="passenger" speedFactor="0.89" vaporized=""/>
    <tripinfo id="passenger47" depart="95.40" departLane="C1D1_0" departPos="5.10" departSpeed="0.00" departDelay="1.40" arrival="125.50" arrivalLane="D0D1_0" arrivalPos="93.60" arrivalSpeed="14.27" duration="30.10" routeLength="278.95" waitingTime="0.00" waitingCount="0" stopTime="0.00" timeLoss="9.25" rerouteNo="0" devices="tripinfo_passenger47" vType="passenger" speedFactor="1.03" vaporized=""/>
    <tripinfo id="passenger45" depart="90.30" departLane="C1B1_0" departPos="5.10" departSpeed="0.00" departDelay="0.30" arrival="126.40" arrivalLane="D1D0_0" arrivalPos="93.60" arrivalSpeed="14.69" duration="36.10" routeLength="370.96" waitingTime="0.00" waitingCount="0" stopTime="0.00" timeLoss="9.71" rerouteNo="0" devices="tripinfo_passenger45" vType="passenger" speedFactor="1.07" vaporized=""/>
    <tripinfo id="passenger51" depart="104.20" departLane="D0C0_0" departPos="5.10" departSpeed="0.00" departDelay="2.20" arrival="129.70" arrivalLane="B0B1_0" arrivalPos="85.60" arrivalSpeed="13.99" duration="25.50" routeLength="279.13" waitingTime="0.00" waitingCount="0" stopTime="0.00" timeLoss="5.84" rerouteNo="0" devices="tripinfo_passenger51" vType="passenger" speedFactor="1.06" vaporized=""/>
    <tripinfo id="passenger46" depart="92.00" departLane="D0C0_0" departPos="5.10" departSpeed="0.00" departDelay="0.00" arrival="130.80" arrivalLane="C1C0_0" arrivalPos="85.60" arrivalSpeed="8.98" duration="38.80" routeLength="269.40" waitingTime="5.20" waitingCount="1" stopTime="0.00" timeLoss="14.98" rerouteNo="0" devices="tripinfo_passenger46" vType="passenger" speedFactor="0.89" vaporized=""/>
    <tripinfo id="emergency4" depart="120.00" departLane="C1B1_0" departPos="6.60" departSpeed="0.00" departDelay="0.00" arrival="136.60" arrivalLane="B1A1_0" arrivalPos="89.60" arrivalSpeed="13.78" duration="16.60" routeLength="183.00" waitingTime="0.00" waitingCount="0" stopTime="0.00" timeLoss="3.39" rerouteNo="0" devices="tripinfo_emergency4" vType="emergency" speedFactor="1.00" vaporized=""/>
    <tripinfo id="passenger44" depart="88.00" departLane="D0D1_0" departPos="5.10" departSpeed="0.00" departDelay="0.00" arrival="138.60" arrivalLane="A1B1_0" arrivalPos="89.60" arrivalSpeed="11.47" duration="50.60" routeLength="484.11" waitingTime="0.00" waitingCount="0" stopTime="0.00" timeLoss="6.62" rerouteNo="0" devices="tripinfo_passenger44" vType="passenger" speedFactor="0.83" vaporized=""/>
    <tripinfo id="passenger38" depart="77.90" departLane="C0B0_0" departPos="5.10" departSpeed="0.00" departDelay="1.90" arrival="140.40" arrivalLane="C0D0_0" arrivalPos="89.60" arrivalSpeed="9.40" duration="62.50" routeLength="468.18" waitingTime="1.20" waitingCount="1" stopTime="0.00" timeLoss="30.55" rerouteNo="1" devices="tripinfo_passenger38" vType="passenger" speedFactor="1.15" vaporized=""/>
    <tripinfo id="passenger23" depart="48.50" departLane="B1C1_0" departPos="5.10" departSpeed="0.00" departDelay="2.50" arrival="141.70" arrivalLane="C1C0_0" arrivalPos="85.60" arrivalSpeed="10.13" duration="93.20" routeLength="550.10" waitingTime="31.40" waitingCount="2" stopTime="0.00" timeLoss="50.20" rerouteNo="1" devices="tripinfo_passenger23" vType="passenger" speedFactor="1.02" vaporized=""/>
    <tripinfo id="passenger63" depart="126.00" departLane="C1C0_0" departPos="5.10" departSpeed="0.00" departDelay="0.00" arrival="144.20" arrivalLane="C0D0_0" arrivalPos="89.60" arrivalSpeed="14.94" duration="18.20" routeLength="184.29" waitingTime="0.00" waitingCount="0" stopTime="0.00" timeLoss="5.22" rerouteNo="0" devices="tripinfo_passenger63" vType="passenger" speedFactor="1.08" vaporized=""/>
    <tripinfo id="passenger55" depart="116.00" departLane="D0C0_0" departPos="5.10" departSpeed="0.00" departDelay="6.00" arrival="144.40" arrivalLane="B0B1_0" arrivalPos="85.60" arrivalSpeed="12.12" duration="28.40" routeLength="279.13" waitingTime="0.00" waitingCount="0" stopTime="0.00" timeLoss="4.47" rerouteNo="0" devices="tripinfo_passenger55" vType="passenger" speedFactor="0.87" vaporized=""/>
    <tripinfo id="passenger52" depart="104.70" departLane="B1A1_0" departPos="5.10" departSpeed="0.00" departDelay="0.70" arrival="149.20" arrivalLane="C1B1_0" arrivalPos="85.60" arrivalSpeed="13.09" duration="44.50" routeLength="369.05" waitingTime="4.00" waitingCount="1" stopTime="0.00" timeLoss="14.38" rerouteNo="0" devices="tripinfo_passenger52" vType="passenger" speedFactor="0.95" vaporized=""/>
    <tripinfo id="passenger65" depart="130.00" departLane="D1D0_0" departPos="5.10" departSpeed="0.00" departDelay="0.00" arrival="149.20" arrivalLane="D0C0_0" arrivalPos="89.60" arrivalSpeed="14.32" duration="19.20" routeLength="180.68" waitingTime="0.00" waitingCount="0" stopTime="0.00" timeLoss="6.26" rerouteNo="0" devices="tripinfo_passenger65" vType="passenger" speedFactor="1.04" vaporized=""/>
    <tripinfo id="passenger32" depart="65.10" departLane="C1D1_0" departPos="5.10" departSpeed="0.00" departDelay="1.10" arrival="150.10" arrivalLane="B0B1_0" arrivalPos="85.60" arrivalSpeed="13.67" duration="85.00" routeLength="468.83" waitingTime="24.60" waitingCount="4" stopTime="0.00" timeLoss="49.62" rerouteNo="0" devices="tripinfo_passenger32" vType="passenger" speedFactor="1.03" vaporized=""/>
    <tripinfo id="passenger54" depart="108.00" departLane="A1B1_0" departPos="5.10" departSpeed="0.00" departDelay="0.00" arrival="150.80" arrivalLane="A0B0_0" arrivalPos="89.60" arrivalSpeed="12.81" duration="42.80" routeLength="377.46" waitingTime="0.00" waitingCount="0" stopTime="0.00" timeLoss="10.73" rerouteNo="0" devices="tripinfo_passenger54" vType="passenger" speedFactor="0.92" vaporized=""/>
    <tripinfo id="passenger56" depart="119.10" departLane="D0D1_0" departPos="5.10" departSpeed="0.00" departDelay="7.10" arrival="154.00" arrivalLane="B1B0_0" arrivalPos="85.60" arrivalSpeed="14.45" duration="34.90" routeLength="385.63" waitingTime="0.00" waitingCount="0" stopTime="0.00" timeLoss="7.48" rerouteNo="0" devices="tripinfo_passenger56" vType="passenger" speedFactor="1.07" vaporized=""/>
    <tripinfo id="passenger50" depart="102.40" departLane="C0D0_0" departPos="5.10" departSpeed="0.00" departDelay="2.40" arrival="156.00" arrivalLane="A1A0_0" arrivalPos="93.60" arrivalSpeed="14.86" duration="53.60" routeLength="577.22" waitingTime="0.00" waitingCount="0" stopTime="0.00" timeLoss="12.75" rerouteNo="0" devices="tripinfo_passenger50" vType="passenger" speedFactor="1.08" vaporized=""/>
    <tripinfo id="passenger64" depart="128.00" departLane="C0D0_0" departPos="5.10" departSpeed="0.00" departDelay="0.00" arrival="157.70" arrivalLane="D1C1_0" arrivalPos="89.60" arrivalSpeed="12.95" duration="29.70" routeLength="283.18" waitingTime="0.00" waitingCount="0" stopTime="0.00" timeLoss="6.26" rerouteNo="0" devices="tripinfo_passenger64" vType="passenger" speedFactor="0.93" vaporized=""/>
    <tripinfo id="passenger66" depart="132.00" departLane="C1D1_0" departPos="5.10" departSpeed="0.00" departDelay="0.00" arrival="159.20" arrivalLane="C1B1_0" arrivalPos="85.60" arrivalSpeed="13.82" duration="27.20" routeLength="278.77" waitingTime="0.00" waitingCount="0" stopTime="0.00" timeLoss="6.19" rerouteNo="0" devices="tripinfo_passenger66" vType="passenger" speedFactor="1.00" vaporized=""/>
    <tripinfo id="passenger40" depart="80.60" departLane="B0A0_0" departPos="5.10" departSpeed="0.00" departDelay="0.60" arrival="161.80" arrivalLane="D0D1_0" arrivalPos="93.60" arrivalSpeed="11.09" duration="81.20" routeLength="672.95" waitingTime="1.80" waitingCount="1" stopTime="0.00" timeLoss="14.69" rerouteNo="1" devices="tripinfo_passenger40" vType="passenger" speedFactor="0.80" vaporized=""/>
    <tripinfo id="passenger67" depart="134.00" departLane="D0D1_0" departPos="5.10" departSpeed="0.00" departDelay="0.00" arrival="163.00" arrivalLane="D0C0_0" arrivalPos="89.60" arrivalSpeed="15.93" duration="29.00" routeLength="278.95" waitingTime="0.00" waitingCount="0" stopTime="0.00" timeLoss="10.35" rerouteNo="0" devices="tripinfo_passenger67" vType="passenger" speedFactor="1.15" vaporized=""/>
    <tripinfo id="passenger60" depart="130.30" departLane="B1C1_0" departPos="5.10" departSpeed="0.00" departDelay="10.30" arrival="164.30" arrivalLane="B1A1_0" arrivalPos="89.60" arrivalSpeed="11.32" duration="34.00" routeLength="274.78" waitingTime="0.00" waitingCount="0" stopTime="0.00" timeLoss="8.62" rerouteNo="0" devices="tripinfo_passenger60" vType="passenger" speedFactor="0.82" vaporized=""/>
    <tripinfo id="passenger69" depart="138.00" departLane="C1C0_0" departPos="5.10" departSpeed="0.00" departDelay="0.00" arrival="170.60" arrivalLane="D0D1_0" arrivalPos="93.60" arrivalSpeed="11.11" duration="32.60" routeLength="285.63" waitingTime="0.00" waitingCount="0" stopTime="0.00" timeLoss="5.34" rerouteNo="0" devices="tripinfo_passenger69" vType="passenger" speedFactor="0.81" vaporized=""/>
    <tripinfo id="passenger62" depart="125.90" departLane="B1B0_0" departPos="5.10" departSpeed="0.00" departDelay="1.90" arrival="173.40" arrivalLane="A1A0_0" arrivalPos="93.60" arrivalSpeed="16.08" duration="47.50" routeLength="373.58" waitingTime="0.90" waitingCount="1" stopTime="0.00" timeLoss="22.34" rerouteNo="0" devices="tripinfo_passenger62" vType="passenger" speedFactor="1.16" vaporized=""/>
    <tripinfo id="passenger75" depart="154.60" departLane="D0D1_0" departPos="5.10" departSpeed="0.00" departDelay="4.60" arrival="174.50" arrivalLane="D1C1_0" arrivalPos="89.60" arrivalSpeed="13.00" duration="19.90" routeLength="185.84" waitingTime="0.00" waitingCount="0" stopTime="0.00" timeLoss="4.86" rerouteNo="0" devices="tripinfo_passenger75" vType="passenger" speedFactor="0.94" vaporized=""/>
    <tripinfo id="passenger61" depart="132.90" departLane="B1C1_0" departPos="5.10" departSpeed="0.00" departDelay="10.90" arrival="174.70" arrivalLane="D0C0_0" arrivalPos="89.60" arrivalSpeed="15.20" duration="41.80" routeLength="372.86" waitingTime="0.00" waitingCount="0" stopTime="0.00" timeLoss="16.54" rerouteNo="0" devices="tripinfo_passenger61" vType="passenger" speedFactor="1.10" vaporized=""/>
    <tripinfo id="passenger39" depart="84.40" departLane="B0B1_0" departPos="5.10" departSpeed="0.00" departDelay="6.40" arrival="176.20" arrivalLane="C1C0_0" arrivalPos="85.60" arrivalSpeed="9.49" duration="91.80" routeLength="450.30" waitingTime="22.50" waitingCount="2" stopTime="0.00" timeLoss="54.63" rerouteNo="1" devices="tripinfo_passenger39" vType="passenger" speedFactor="0.96" vaporized=""/>
    <tripinfo id="passenger72" depart="144.00" departLane="C0C1_0" departPos="5.10" departSpeed="0.00" departDelay="0.00" arrival="181.30" arrivalLane="D0C0_0" arrivalPos="89.60" arrivalSpeed="15.33" duration="37.30" routeLength="367.49" waitingTime="0.00" waitingCount="0" stopTime="0.00" timeLoss="11.79" rerouteNo="0" devices="tripinfo_passenger72" vType="passenger" speedFactor="1.11" vaporized=""/>
    <tripinfo id="passenger71" depart="144.50" departLane="A0B0_0" departPos="5.10" departSpeed="0.00" departDelay="2.50" arrival="183.30" arrivalLane="A1B1_0" arrivalPos="89.60" arrivalSpeed="14.74" duration="38.80" routeLength="367.14" waitingTime="0.00" waitingCount="0" stopTime="0.00" timeLoss="12.19" rerouteNo="0" devices="tripinfo_passenger71" vType="passenger" speedFactor="1.07" vaporized=""/>
    <tripinfo id="passenger53" depart="106.00" departLane="A0B0_0" departPos="5.10" departSpeed="0.00" departDelay="0.00" arrival="184.40" arrivalLane="D0C0_0" arrivalPos="89.60" arrivalSpeed="13.32" duration="78.40" routeLength="571.61" waitingTime="10.60" waitingCount="1" stopTime="0.00" timeLoss="31.80" rerouteNo="1" devices="tripinfo_passenger53" vType="passenger" speedFactor="0.97" vaporized=""/>
    <tripinfo id="passenger78" depart="157.50" departLane="B1A1_0" departPos="5.10" departSpeed="0.00" departDelay="1.50" arrival="186.10" arrivalLane="B1C1_0" arrivalPos="85.60" arrivalSpeed="12.79" duration="28.60" routeLength="278.77" waitingTime="0.00" waitingCount="0" stopTime="0.00" timeLoss="5.88" rerouteNo="0" devices="tripinfo_passenger78" vType="passenger" speedFactor="0.93" vaporized=""/>
    <tripinfo id="emergency5" depart="160.60" departLane="B1C1_0" departPos="6.60" departSpeed="0.00" departDelay="10.60" arrival="187.70" arrivalLane="D1C1_0" arrivalPos="89.60" arrivalSpeed="13.77" duration="27.10" routeLength="277.27" waitingTime="0.00" waitingCount="0" stopTime="0.00" timeLoss="6.12" rerouteNo="0" devices="tripinfo_emergency5" vType="emergency" speedFactor="1.00" vaporized=""/>
    <tripinfo id="passenger57" depart="117.60" departLane="A0B0_0" departPos="5.10" departSpeed="0.00" departDelay="3.60" arrival="188.20" arrivalLane="D0D1_0" arrivalPos="93.60" arrivalSpeed="12.16" duration="70.60" routeLength="578.68" waitingTime="6.90" waitingCount="1" stopTime="0.00" timeLoss="19.17" rerouteNo="1" devices="tripinfo_passenger57" vType="passenger" speedFactor="0.88" vaporized=""/>
    <tripinfo id="passenger77" depart="158.00" departLane="B0A0_0" departPos="5.10" departSpeed="0.00" departDelay="4.00" arrival="190.60" arrivalLane="A1A0_0" arrivalPos="93.60" arrivalSpeed="11.96" duration="32.60" routeLength="278.95" waitingTime="0.00" waitingCount="0" stopTime="0.00" timeLoss="7.85" rerouteNo="0" devices="tripinfo_passenger77" vType="passenger" speedFactor="0.87" vaporized=""/>