<?xml version="1.0" encoding="UTF-8"?>

<!-- generated on Mon May  3 15:22:30 2021 by Eclipse SUMO Version 1.1.0
<configuration xmlns:xsi="http://www.w3.org/2001/XMLSchema-instance" xsi:noNamespaceSchemaLocation="http://sumo.dlr.de/xsd/sumoConfiguration.xsd">

    <input>
        <net-file value="contrib/ndn4ivc/traces/square-map/map.net.xml"/>
        <route-files value="contrib/ndn4ivc/traces/square-map/passenger_routes.rou.xml,contrib/ndn4ivc/traces/square-map/emergency_routes.rou.xml,contrib/ndn4ivc/traces/square-map/passenger_accident.xml"/>
    </input>

    <output>
        <emission-output value="contrib/ndn4ivc/traces/square-map/sumo-output.emission.xml"/>
        <tripinfo-output value="contrib/ndn4ivc/traces/square-map/sumo-output.tripinfo.xml"/>
    </output>

    <time>
        <begin value="0"/>
        <end value="3600"/>
        <step-length value="0.100000"/>
    </time>

    <report>
        <verbose value="true"/>
        <error-log value="contrib/ndn4ivc/traces/square-map/SumoError.log"/>
        <no-step-log value="true"/>
    </report>

    <traci_server>
        <remote-port value="3418"/>
    </traci_server>

    <random_number>
        <seed value="10"/>
    </random_number>

    <gui_only>
        <gui-settings-file value="contrib/ndn4ivc/traces/square-map/settings.xml"/>
        <quit-on-end value="true"/>
        <start value="true"/>
        <tracker-interval value="0.1"/>
    </gui_only>

</configuration>
-->

<tripinfos xmlns:xsi="http://www.w3.org/2001/XMLSchema-instance" xsi:noNamespaceSchemaLocation="http://sumo.dlr.de/xsd/tripinfo_file.xsd">
    <tripinfo id="passenger1" depart="2.00" departLane="D1D0_0" departPos="5.10" departSpeed="0.00" departDelay="0.00" arrival="21.80" arrivalLane="D0C0_0" arrivalPos="89.60" arrivalSpeed="13.26" duration="19.80" routeLength="180.68" waitingTime="0.00" waitingCount="0" stopTime="0.00" timeLoss="5.72" rerouteNo="0" devices="tripinfo_passenger1" vType="passenger" speedFactor="0.96" vaporized=""/>
    <tripinfo id="passenger0" depart="0.00" departLane="C0B0_0" departPos="5.10" departSpeed="0.00" departDelay="0.00" arrival="25.50" arrivalLane="A0A1_0" arrivalPos="93.60" arrivalSpeed="15.19" duration="25.50" routeLength="280.68" waitingTime="0.00" waitingCount="0" stopTime="0.00" timeLoss="6.68" rerouteNo="0" devices="tripinfo_passenger0" vType="passenger" speedFactor="1.10" vaporized=""/>
    <tripinfo id="passenger3" depart="6.00" departLane="A1A0_0" departPos="5.10" departSpeed="0.00" departDelay="0.00" arrival="34.40" arrivalLane="B0B1_0" arrivalPos="85.60" arrivalSpeed="13.76" duration="28.40" routeLength="285.63" waitingTime="0.00" waitingCount="0" stopTime="0.00" timeLoss="6.29" rerouteNo="0" devices="tripinfo_passenger3" vType="passenger" speedFactor="1.00" vaporized=""/>
    <tripinfo id="passenger5" depart="10.00" departLane="C0D0_0" departPos="5.10" departSpeed="0.00" departDelay="0.00" arrival="37.30" arrivalLane="D1C1_0" arrivalPos="89.60" arrivalSpeed="15.12" duration="27.30" routeLength="283.18" waitingTime="0.00" waitingCount="0" stopTime="0.00" timeLoss="7.15" rerouteNo="0" devices="tripinfo_passenger5" vType="passenger" speedFactor="1.09" vaporized=""/>
    <tripinfo id="passenger6" depart="12.00" departLane="B1C1_0" departPos="5.10" departSpeed="0.00" departDelay="0.00" arrival="41.10" arrivalLane="C0B0_0" arrivalPos="85.60" arrivalSpeed="12.85" duration="29.10" routeLength="269.76" waitingTime="0.00" waitingCount="0" stopTime="0.00" timeLoss="6.49" rerouteNo="0" devices="tripinfo_passenger6" vType="passenger" speedFactor="0.93" vaporized=""/>
    <tripinfo id="passenger2" depart="4.00" departLane="D1C1_0" departPos="5.10" departSpeed="0.00" departDelay="0.00" arrival="43.10" arrivalLane="D0C0_0" arrivalPos="89.60" arrivalSpeed="14.49" duration="39.10" routeLength="367.14" waitingTime="0.00" waitingCount="0" stopTime="0.00" timeLoss="12.19" rerouteNo="0" devices="tripinfo_passenger2" vType="passenger" speedFactor="1.05" vaporized=""/>
    <tripinfo id="passenger9" depart="18.00" departLane="B1A1_0" departPos="5.10" departSpeed="0.00" departDelay="0.00" arrival="44.50" arrivalLane="B1C1_0" arrivalPos="85.60" arrivalSpeed="14.60" duration="26.50" routeLength="278.77" waitingTime="0.00" waitingCount="0" stopTime="0.00" timeLoss="6.50" rerouteNo="0" devices="tripinfo_passenger9" vType="passenger" speedFactor="1.05" vaporized=""/>
    <tripinfo id="emergency0" depart="0.00" departLane="D0C0_0" departPos="6.60" departSpeed="0.00" departDelay="0.00" arrival="45.20" arrivalLane="A1A0_0" arrivalPos="93.60" arrivalSpeed="13.86" duration="45.20" routeLength="481.45" waitingTime="0.00" waitingCount="0" stopTime="0.00" timeLoss="9.17" rerouteNo="0" devices="tripinfo_emergency0" vType="emergency" speedFactor="1.00" vaporized=""/>
    <tripinfo id="passenger11" depart="22.00" departLane="A1A0_0" departPos="5.10" departSpeed="0.00" departDelay="0.00" arrival="49.60" arrivalLane="B0B1_0" arrivalPos="85.60" arrivalSpeed="14.40" duration="27.60" routeLength="285.63" waitingTime="0.00" waitingCount="0" stopTime="0.00" timeLoss="6.31" rerouteNo="0" devices="tripinfo_passenger11" vType="passenger" speedFactor="1.04" vaporized=""/>
    <tripinfo id="passenger4" depart="8.00" departLane="B1C1_0" departPos="5.10" departSpeed="0.00" departDelay="0.00" arrival="54.20" arrivalLane="B0B1_0" arrivalPos="85.60" arrivalSpeed="12.61" duration="46.20" routeLength="360.84" waitingTime="2.30" waitingCount="1" stopTime="0.00" timeLoss="14.68" rerouteNo="0" devices="tripinfo_passenger4" vType="passenger" speedFactor="0.91" vaporized=""/>
    <tripinfo id="passenger7" depart="14.00" departLane="C1B1_0" departPos="5.10" departSpeed="0.00" departDelay="0.00" arrival="56.50" arrivalLane="A0B0_0" arrivalPos="89.60" arrivalSpeed="15.37" duration="42.50" routeLength="373.19" waitingTime="1.40" waitingCount="1" stopTime="0.00" timeLoss="16.21" rerouteNo="0" devices="tripinfo_passenger7" vType="passenger" speedFactor="1.11" vaporized=""/>
    <tripinfo id="passenger8" depart="16.00" departLane="A1B1_0" departPos="5.10" departSpeed="0.00" departDelay="0.00" arrival="60.90" arrivalLane="D0D1_0" arrivalPos="93.60" arrivalSpeed="13.82" duration="44.90" routeLength="482.95" waitingTime="0.00" waitingCount="0" stopTime="0.00" timeLoss="8.86" rerouteNo="0" devices="tripinfo_passenger8" vType="passenger" speedFactor="1.00" vaporized=""/>
    <tripinfo id="passenger20" depart="41.00" departLane="B1B0_0" departPos="5.10" departSpeed="0.00" departDelay="1.00" arrival="61.80" arrivalLane="B0B1_0" arrivalPos="85.60" arrivalSpeed="13.58" duration="20.80" routeLength="170.77" waitingTime="0.00" waitingCount="0" stopTime="0.00" timeLoss="7.29" rerouteNo="0" devices="tripinfo_passenger20" vType="passenger" speedFactor="0.98" vaporized=""/>
    <tripinfo id="passenger27" depart="54.50" departLane="D0D1_0" departPos="5.10" departSpeed="0.00" departDelay="0.50" arrival="65.10" arrivalLane="D0D1_0" arrivalPos="93.60" arrivalSpeed="11.21" duration="10.60" routeLength="88.50" waitingTime="0.00" waitingCount="0" stopTime="0.00" timeLoss="2.73" rerouteNo="0" devices="tripinfo_passenger27" vType="passenger" speedFactor="0.81" vaporized=""/>
    <tripinfo id="passenger14" depart="31.60" departLane="A1B1_0" departPos="5.10" departSpeed="0.00" departDelay="3.60" arrival="68.40" arrivalLane="C0C1_0" arrivalPos="85.60" arrivalSpeed="11.34" duration="36.80" routeLength="369.40" waitingTime="0.00" waitingCount="0" stopTime="0.00" timeLoss="9.63" rerouteNo="0" devices="tripinfo_passenger14" vType="passenger" speedFactor="1.04" vaporized=""/>
    <tripinfo id="passenger23" depart="46.00" departLane="D0C0_0" departPos="5.10" departSpeed="0.00" departDelay="0.00" arrival="74.80" arrivalLane="C1C0_0" arrivalPos="85.60" arrivalSpeed="14.10" duration="28.80" routeLength="269.40" waitingTime="0.00" waitingCount="0" stopTime="0.00" timeLoss="8.00" rerouteNo="0" devices="tripinfo_passenger23" vType="passenger" speedFactor="1.02" vaporized=""/>
    <tripinfo id="emergency1" depart="34.40" departLane="B1B0_0" departPos="6.60" departSpeed="0.00" departDelay="4.40" arrival="76.00" arrivalLane="A1B1_0" arrivalPos="89.60" arrivalSpeed="13.88" duration="41.60" routeLength="365.99" waitingTime="0.00" waitingCount="0" stopTime="0.00" timeLoss="13.61" rerouteNo="0" devices="tripinfo_emergency1" vType="emergency" speedFactor="1.00" vaporized=""/>
    <tripinfo id="passenger10" depart="21.80" departLane="C0C1_0" departPos="5.10" departSpeed="0.00" departDelay="1.80" arrival="76.60" arrivalLane="B0B1_0" arrivalPos="85.60" arrivalSpeed="13.96" duration="54.80" routeLength="370.35" waitingTime="11.30" waitingCount="3" stopTime="0.00" timeLoss="25.91" rerouteNo="0" devices="tripinfo_passenger10" vType="passenger" speedFactor="1.01" vaporized=""/>
    <tripinfo id="passenger16" depart="37.60" departLane="B1B0_0" departPos="5.10" departSpeed="0.00" departDelay="5.60" arrival="80.40" arrivalLane="A1B1_0" arrivalPos="89.60" arrivalSpeed="13.15" duration="42.80" routeLength="367.49" waitingTime="0.00" waitingCount="0" stopTime="0.00" timeLoss="13.20" rerouteNo="0" devices="tripinfo_passenger16" vType="passenger" speedFactor="0.95" vaporized=""/>
    <tripinfo id="passenger18" depart="36.00" departLane="A0A1_0" departPos="5.10" departSpeed="0.00" departDelay="0.00" arrival="80.70" arrivalLane="D1C1_0" arrivalPos="89.60" arrivalSpeed="14.55" duration="44.70" routeLength="478.95" waitingTime="0.00" waitingCount="0" stopTime="0.00" timeLoss="10.70" rerouteNo="0" devices="tripinfo_passenger18" vType="passenger" speedFactor="1.05" vaporized=""/>
    <tripinfo id="passenger21" depart="42.00" departLane="D0C0_0" departPos="5.10" departSpeed="0.00" departDelay="0.00" arrival="81.80" arrivalLane="B1C1_0" arrivalPos="85.60" arrivalSpeed="8.36" duration="39.80" routeLength="373.76" waitingTime="0.00" waitingCount="0" stopTime="0.00" timeLoss="13.53" rerouteNo="0" devices="tripinfo_passenger21" vType="passenger" speedFactor="1.08" vaporized=""/>
    <tripinfo id="passenger19" depart="38.00" departLane="D0D1_0" departPos="5.10" departSpeed="0.00" departDelay="0.00" arrival="85.20" arrivalLane="B0B1_0" arrivalPos="85.60" arrivalSpeed="13.55" duration="47.20" routeLength="473.58" waitingTime="0.00" waitingCount="0" stopTime="0.00" timeLoss="10.11" rerouteNo="0" devices="tripinfo_passenger19" vType="passenger" speedFactor="0.98" vaporized=""/>
    <tripinfo id="passenger12" depart="25.50" departLane="B1A1_0" departPos="5.10" departSpeed="0.00" departDelay="1.50" arrival="85.60" arrivalLane="D0C0_0" arrivalPos="89.60" arrivalSpeed="12.57" duration="60.10" routeLength="571.13" waitingTime="0.00" waitingCount="0" stopTime="0.00" timeLoss="12.71" rerouteNo="0" devices="tripinfo_passenger12" vType="passenger" speedFactor="0.91" vaporized=""/>
    <tripinfo id="passenger15" depart="30.00" departLane="B1A1_0" departPos="5.10" departSpeed="0.00" departDelay="0.00" arrival="87.80" arrivalLane="D0C0_0" arrivalPos="89.60" arrivalSpeed="15.34" duration="57.80" routeLength="571.13" waitingTime="0.00" waitingCount="0" stopTime="0.00" timeLoss="19.13" rerouteNo="0" devices="tripinfo_passenger15" vType="passenger" speedFactor="1.11" vaporized=""/>
    <tripinfo id="passenger29" depart="58.00" departLane="C0B0_0" departPos="5.10" departSpeed="0.00" departDelay="0.00" arrival="88.10" arrivalLane="A0A1_0" arrivalPos="93.60" arrivalSpeed="11.49" duration="30.10" routeLength="280.68" waitingTime="0.00" waitingCount="0" stopTime="0.00" timeLoss="5.22" rerouteNo="0" devices="tripinfo_passenger29" vType="passenger" speedFactor="0.83" vaporized=""/>
    <tripinfo id="passenger28" depart="61.30" departLane="B0B1_0" departPos="5.10" departSpeed="0.00" departDelay="5.30" arrival="91.80" arrivalLane="A1B1_0" arrivalPos="89.60" arrivalSpeed="12.89" duration="30.50" routeLength="278.56" waitingTime="0.00" waitingCount="0" stopTime="0.00" timeLoss="7.17" rerouteNo="0" devices="tripinfo_passenger28" vType="passenger" speedFactor="0.93" vaporized=""/>
    <tripinfo id="passenger38" depart="76.00" departLane="C1D1_0" departPos="5.10" departSpeed="0.00" departDelay="0.00" arrival="94.70" arrivalLane="D1D0_0" arrivalPos="93.60" arrivalSpeed="15.91" duration="18.70" routeLength="180.68" waitingTime="0.00" waitingCount="0" stopTime="0.00" timeLoss="6.89" rerouteNo="0" devices="tripinfo_passenger38" vType="passenger" speedFactor="1.15" vaporized=""/>
    <tripinfo id="passenger22" depart="47.90" departLane="B0B1_0" departPos="5.10" departSpeed="0.00" departDelay="3.90" arrival="95.10" arrivalLane="D0D1_0" arrivalPos="93.60" arrivalSpeed="13.91" duration="47.20" routeLength="473.58" waitingTime="0.00" waitingCount="0" stopTime="0.00" timeLoss="10.99" rerouteNo="0" devices="tripinfo_passenger22" vType="passenger" speedFactor="1.00" vaporized=""/>
    <tripinfo id="passenger26" depart="52.00" departLane="C1D1_0" departPos="5.10" departSpeed="0.00" departDelay="0.00" arrival="96.00" arrivalLane="A1B1_0" arrivalPos="89.60" arrivalSpeed="14.70" duration="44.00" routeLength="477.04" waitingTime="0.00" waitingCount="0" stopTime="0.00" timeLoss="9.83" rerouteNo="0" devices="tripinfo_passenger26" vType="passenger" speedFactor="1.07" vaporized=""/>
    <tripinfo id="passenger35" depart="71.80" departLane="C1C0_0" departPos="5.10" departSpeed="0.00" departDelay="1.80" arrival="96.90" arrivalLane="C0C1_0" arrivalPos="85.60" arrivalSpeed="8.85" duration="25.10" routeLength="170.77" waitingTime="1.00" waitingCount="1" stopTime="0.00" timeLoss="10.87" rerouteNo="0" devices="tripinfo_passenger35" vType="passenger" speedFactor="0.93" vaporized=""/>
    <tripinfo id="passenger39" depart="78.00" departLane="C0C1_0" departPos="5.10" departSpeed="0.00" departDelay="0.00" arrival="102.30" arrivalLane="C1B1_0" arrivalPos="85.60" arrivalSpeed="13.24" duration="24.30" routeLength="180.29" waitingTime="2.90" waitingCount="1" stopTime="0.00" timeLoss="10.01" rerouteNo="0" devices="tripinfo_passenger39" vType="passenger" speedFactor="0.96" vaporized=""/>
    <tripinfo id="passenger31" depart="66.90" departLane="B1C1_0" departPos="5.10" departSpeed="0.00" departDelay="4.90" arrival="103.80" arrivalLane="D1C1_0" arrivalPos="89.60" arrivalSpeed="13.03" duration="36.90" routeLength="278.77" waitingTime="2.80" waitingCount="1" stopTime="0.00" timeLoss="14.56" rerouteNo="0" devices="tripinfo_passenger31" vType="passenger" speedFactor="0.94" vaporized=""/>
    <tripinfo id="passenger36" depart="72.00" departLane="D0C0_0" departPos="5.10" departSpeed="0.00" departDelay="0.00" arrival="105.40" arrivalLane="C1D1_0" arrivalPos="89.60" arrivalSpeed="9.59" duration="33.40" routeLength="277.76" waitingTime="0.00" waitingCount="0" stopTime="0.00" timeLoss="12.37" rerouteNo="0" devices="tripinfo_passenger36" vType="passenger" speedFactor="1.02" vaporized=""/>
    <tripinfo id="passenger32" depart="65.80" departLane="A0A1_0" departPos="5.10" departSpeed="0.00" departDelay="1.80" arrival="105.70" arrivalLane="B0B1_0" arrivalPos="85.60" arrivalSpeed="14.24" duration="39.90" routeLength="365.58" waitingTime="0.00" waitingCount="0" stopTime="0.00" timeLoss="12.26" rerouteNo="0" devices="tripinfo_passenger32" vType="passenger" speedFactor="1.03" vaporized=""/>
    <tripinfo id="emergency2" depart="61.80" departLane="B1C1_0" departPos="6.60" departSpeed="0.00" departDelay="1.80" arrival="111.10" arrivalLane="A1A0_0" arrivalPos="93.60" arrivalSpeed="13.89" duration="49.30" routeLength="374.62" waitingTime="4.90" waitingCount="2" stopTime="0.00" timeLoss="20.66" rerouteNo="0" devices="tripinfo_emergency2" vType="emergency" speedFactor="1.00" vaporized=""/>
    <tripinfo id="passenger25" depart="50.00" departLane="A1A0_0" departPos="5.10" departSpeed="0.00" departDelay="0.00" arrival="112.10" arrivalLane="D1C1_0" arrivalPos="89.60" arrivalSpeed="14.47" duration="62.10" routeLength="577.22" waitingTime="0.50" waitingCount="1" stopTime="0.00" timeLoss="20.10" rerouteNo="0" devices="tripinfo_passenger25" vType="passenger" speedFactor="1.05" vaporized=""/>
    <tripinfo id="passenger34" depart="68.00" departLane="A0B0_0" departPos="5.10" departSpeed="0.00" departDelay="0.00" arrival="114.40" arrivalLane="A1A0_0" arrivalPos="93.60" arrivalSpeed="14.20" duration="46.40" routeLength="373.23" waitingTime="4.70" waitingCount="1" stopTime="0.00" timeLoss="17.87" rerouteNo="0" devices="tripinfo_passenger34" vType="passenger" speedFactor="1.03" vaporized=""/>
    <tripinfo id="emergency3" depart="90.00" departLane="D0C0_0" departPos="6.60" departSpeed="0.00" departDelay="0.00" arrival="116.20" arrivalLane="B0A0_0" arrivalPos="89.60" arrivalSpeed="8.74" duration="26.20" routeLength="287.00" waitingTime="0.00" waitingCount="0" stopTime="0.00" timeLoss="5.54" rerouteNo="0" devices="tripinfo_emergency3" vType="emergency" speedFactor="1.00" vaporized=""/>
    <tripinfo id="passenger45" depart="90.00" departLane="A0B0_0" departPos="5.10" departSpeed="0.00" departDelay="0.00" arrival="118.20" arrivalLane="B1B0_0" arrivalPos="85.60" arrivalSpeed="14.69" duration="28.20" routeLength="274.56" waitingTime="0.00" waitingCount="0" stopTime="0.00" timeLoss="8.02" rerouteNo="0" devices="tripinfo_passenger45" vType="passenger" speedFactor="1.07" vaporized=""/>
    <tripinfo id="passenger33" depart="66.00" departLane="D1C1_0" departPos="5.10" departSpeed="0.00" departDelay="0.00" arrival="118.80" arrivalLane="A0B0_0" arrivalPos="89.60" arrivalSpeed="14.31" duration="52.80" routeLength="477.19" waitingTime="3.60" waitingCount="1" stopTime="0.00" timeLoss="17.17" rerouteNo="0" devices="tripinfo_passenger33" vType="passenger" speedFactor="1.03" vaporized=""/>
    <tripinfo id="passenger43" depart="87.20" departLane="C1D1_0" departPos="5.10" departSpeed="0.00" departDelay="1.20" arrival="121.10" arrivalLane="D0D1_0" arrivalPos="93.60" arrivalSpeed="12.47" duration="33.90" routeLength="278.95" waitingTime="0.00" waitingCount="0" stopTime="0.00" timeLoss="10.20" rerouteNo="0" devices="tripinfo_passenger43" vType="passenger" speedFactor="0.91" vaporized=""/>
    <tripinfo id="passenger50" depart="102.80" departLane="B0A0_0" departPos="5.10" departSpeed="0.00" departDelay="2.80" arrival="122.70" arrivalLane="A0B0_0" arrivalPos="89.60" arrivalSpeed="14.90" duration="19.90" routeLength="178.77" waitingTime="0.00" waitingCount="0" stopTime="0.00" timeLoss="6.99" rerouteNo="0" devices="tripinfo_passenger50" vType="passenger" speedFactor="1.08" vaporized=""/>
    <tripinfo id="passenger41" depart="83.10" departLane="C1D1_0" departPos="5.10" departSpeed="0.00" departDelay="1.10" arrival="128.50" arrivalLane="B1B0_0" arrivalPos="85.60" arrivalSpeed="12.70" duration="45.40" routeLength="378.56" waitingTime="1.40" waitingCount="1" stopTime="0.00" timeLoss="13.78" rerouteNo="0" devices="tripinfo_passenger41" vType="passenger" speedFactor="0.92" vaporized=""/>
    <tripinfo id="passenger42" depart="84.00" departLane="A0B0_0" departPos="5.10" departSpeed="0.00" departDelay="0.00" arrival="128.60" arrivalLane="D1D0_0" arrivalPos="93.60" arrivalSpeed="14.24" duration="44.60" routeLength="479.10" waitingTime="0.00" waitingCount="0" stopTime="0.00" timeLoss="9.38" rerouteNo="1" devices="tripinfo_passenger42" vType="passenger" speedFactor="1.03" vaporized=""/>
    <tripinfo id="passenger51" depart="102.00" departLane="C0C1_0" departPos="5.10" departSpeed="0.00" departDelay="0.00" arrival="130.30" arrivalLane="C0B0_0" arrivalPos="85.60" arrivalSpeed="14.61" duration="28.30" routeLength="265.40" waitingTime="0.00" waitingCount="0" stopTime="0.00" timeLoss="8.61" rerouteNo="0" devices="tripinfo_passenger51" vType="passenger" speedFactor="1.06" vaporized=""/>
    <tripinfo id="passenger44" depart="88.00" departLane="B1A1_0" departPos="5.10" departSpeed="0.00" departDelay="0.00" arrival="130.70" arrivalLane="C1D1_0" arrivalPos="89.60" arrivalSpeed="11.45" duration="42.70" routeLength="382.77" waitingTime="0.00" waitingCount="0" stopTime="0.00" timeLoss="8.36" rerouteNo="0" devices="tripinfo_passenger44" vType="passenger" speedFactor="0.83" vaporized=""/>
    <tripinfo id="passenger47" depart="106.70" departLane="B0B1_0" departPos="5.10" departSpeed="0.00" departDelay="12.70" arrival="131.60" arrivalLane="B1B0_0" arrivalPos="85.60" arrivalSpeed="14.18" duration="24.90" routeLength="170.77" waitingTime="4.00" waitingCount="1" stopTime="0.00" timeLoss="12.05" rerouteNo="0" devices="tripinfo_passenger47" vType="passenger" speedFactor="1.03" vaporized=""/>
    <tripinfo id="passenger56" depart="113.20" departLane="B1B0_0" departPos="5.10" departSpeed="0.00" departDelay="1.20" arrival="132.20" arrivalLane="B0A0_0" arrivalPos="89.60" arrivalSpeed="13.68" duration="19.00" routeLength="179.13" waitingTime="0.00" waitingCount="0" stopTime="0.00" timeLoss="6.24" rerouteNo="0" devices="tripinfo_passenger56" vType="passenger" speedFactor="1.07" vaporized=""/>
    <tripinfo id="passenger40" depart="80.00" departLane="D0D1_0" departPos="5.10" departSpeed="0.00" departDelay="0.00" arrival="132.20" arrivalLane="A1B1_0" arrivalPos="89.60" arrivalSpeed="11.04" duration="52.20" routeLength="484.11" waitingTime="0.00" waitingCount="0" stopTime="0.00" timeLoss="6.48" rerouteNo="0" devices="tripinfo_passenger40" vType="passenger" speedFactor="0.80" vaporized=""/>
    <tripinfo id="passenger53" depart="115.60" departLane="C1C0_0" departPos="5.10" departSpeed="0.00" departDelay="9.60" arrival="134.60" arrivalLane="C0B0_0" arrivalPos="85.60" arrivalSpeed="13.29" duration="19.00" routeLength="175.13" waitingTime="0.00" waitingCount="0" stopTime="0.00" timeLoss="5.10" rerouteNo="0" devices="tripinfo_passenger53" vType="passenger" speedFactor="0.97" vaporized=""/>
    <tripinfo id="passenger48" depart="96.00" departLane="A0A1_0" departPos="5.10" departSpeed="0.00" departDelay="0.00" arrival="136.10" arrivalLane="C1C0_0" arrivalPos="85.60" arrivalSpeed="11.23" duration="40.10" routeLength="375.31" waitingTime="0.00" waitingCount="0" stopTime="0.00" timeLoss="10.32" rerouteNo="0" devices="tripinfo_passenger48" vType="passenger" speedFactor="0.95" vaporized=""/>
    <tripinfo id="passenger37" depart="76.60" departLane="B1B0_0" departPos="5.10" departSpeed="0.00" departDelay="2.60" arrival="137.80" arrivalLane="D0D1_0" arrivalPos="93.60" arrivalSpeed="12.32" duration="61.20" routeLength="565.16" waitingTime="0.00" waitingCount="0" stopTime="0.00" timeLoss="11.32" rerouteNo="1" devices="tripinfo_passenger37" vType="passenger" speedFactor="0.89" vaporized=""/>
    <tripinfo id="passenger55" depart="110.00" departLane="D1C1_0" departPos="5.10" departSpeed="0.00" departDelay="0.00" arrival="138.30" arrivalLane="C1C0_0" arrivalPos="85.60" arrivalSpeed="12.05" duration="28.30" routeLength="184.29" waitingTime="5.90" waitingCount="1" stopTime="0.00" timeLoss="12.24" rerouteNo="0" devices="tripinfo_passenger55" vType="passenger" speedFactor="0.87" vaporized=""/>
    <tripinfo id="passenger46" depart="92.60" departLane="A0B0_0" departPos="5.10" departSpeed="0.00" departDelay="0.60" arrival="143.20" arrivalLane="C0B0_0" arrivalPos="85.60" arrivalSpeed="12.18" duration="50.60" routeLength="468.18" waitingTime="0.00" waitingCount="0" stopTime="0.00" timeLoss="9.05" rerouteNo="1" devices="tripinfo_passenger46" vType="passenger" speedFactor="0.89" vaporized=""/>
    <tripinfo id="passenger52" depart="105.40" departLane="D1D0_0" departPos="5.10" departSpeed="0.00" departDelay="1.40" arrival="148.50" arrivalLane="C1C0_0" arrivalPos="85.60" arrivalSpeed="13.05" duration="43.10" routeLength="365.58" waitingTime="1.50" waitingCount="1" stopTime="0.00" timeLoss="12.99" rerouteNo="0" devices="tripinfo_passenger52" vType="passenger" speedFactor="0.95" vaporized=""/>
    <tripinfo id="passenger63" depart="126.00" departLane="B0B1_0" departPos="5.10" departSpeed="0.00" departDelay="0.00" arrival="151.10" arrivalLane="C1D1_0" arrivalPos="89.60" arrivalSpeed="15.05" duration="25.10" routeLength="279.13" waitingTime="0.00" waitingCount="0" stopTime="0.00" timeLoss="5.86" rerouteNo="0" devices="tripinfo_passenger63" vType="passenger" speedFactor="1.08" vaporized=""/>
    <tripinfo id="passenger71" depart="142.00" departLane="D1D0_0" departPos="5.10" departSpeed="0.00" departDelay="0.00" arrival="151.60" arrivalLane="D1D0_0" arrivalPos="93.60" arrivalSpeed="14.82" duration="9.60" routeLength="88.50" waitingTime="0.00" waitingCount="0" stopTime="0.00" timeLoss="3.58" rerouteNo="0" devices="tripinfo_passenger71" vType="passenger" speedFactor="1.07" vaporized=""/>
    <tripinfo id="passenger54" depart="108.30" departLane="B1C1_0" departPos="5.10" departSpeed="0.00" departDelay="0.30" arrival="154.30" arrivalLane="B0A0_0" arrivalPos="89.60" arrivalSpeed="12.76" duration="46.00" routeLength="369.20" waitingTime="0.00" waitingCount="0" stopTime="0.00" timeLoss="14.41" rerouteNo="0" devices="tripinfo_passenger54" vType="passenger" speedFactor="0.92" vaporized=""/>
    <tripinfo id="passenger57" depart="114.00" departLane="C1D1_0" departPos="5.10" departSpeed="0.00" departDelay="0.00" arrival="155.20" arrivalLane="C0B0_0" arrivalPos="85.60" arrivalSpeed="12.15" duration="41.20" routeLength="373.19" waitingTime="0.00" waitingCount="0" stopTime="0.00" timeLoss="7.97" rerouteNo="0" devices="tripinfo_passenger57" vType="passenger" speedFactor="0.88" vaporized=""/>
    <tripinfo id="passenger67" depart="137.70" departLane="D0C0_0" departPos="5.10" departSpeed="0.00" departDelay="3.70" arrival="156.80" arrivalLane="C0D0_0" arrivalPos="89.60" arrivalSpeed="15.90" duration="19.10" routeLength="178.78" waitingTime="0.00" waitingCount="0" stopTime="0.00" timeLoss="7.02" rerouteNo="0" devices="tripinfo_passenger67" vType="passenger" speedFactor="1.15" vaporized=""/>
    <tripinfo id="passenger64" depart="128.00" departLane="C1B1_0" departPos="5.10" departSpeed="0.00" departDelay="0.00" arrival="157.00" arrivalLane="B1B0_0" arrivalPos="85.60" arrivalSpeed="6.71" duration="29.00" routeLength="180.29" waitingTime="0.00" waitingCount="0" stopTime="0.00" timeLoss="14.23" rerouteNo="0" devices="tripinfo_passenger64" vType="passenger" speedFactor="0.93" vaporized=""/>
    <tripinfo id="passenger58" depart="116.00" departLane="A1A0_0" departPos="5.10" departSpeed="0.00" departDelay="0.00" arrival="165.80" arrivalLane="C1B1_0" arrivalPos="85.60" arrivalSpeed="12.86" duration="49.80" routeLength="469.23" waitingTime="0.00" waitingCount="0" stopTime="0.00" timeLoss="10.94" rerouteNo="0" devices="tripinfo_passenger58" vType="passenger" speedFactor="0.93" vaporized=""/>
    <tripinfo id="passenger66" depart="132.00" departLane="D1C1_0" departPos="5.10" departSpeed="0.00" departDelay="0.00" arrival="166.00" arrivalLane="B1C1_0" arrivalPos="85.60" arrivalSpeed="12.05" duration="34.00" routeLength="274.78" waitingTime="5.00" waitingCount="1" stopTime="0.00" timeLoss="13.35" rerouteNo="0" devices="tripinfo_passenger66" vType="passenger" speedFactor="1.00" vaporized=""/>
    <tripinfo id="passenger61" depart="124.60" departLane="D1D0_0" departPos="5.10" departSpeed="0.00" departDelay="2.60" arrival="167.10" arrivalLane="A0B0_0" arrivalPos="89.60" arrivalSpeed="15.26" duration="42.50" routeLength="478.95" waitingTime="0.00" waitingCount="0" stopTime="0.00" timeLoss="9.91" rerouteNo="0" devices="tripinfo_passenger61" vType="passenger" speedFactor="1.10" vaporized=""/>
    <tripinfo id="passenger62" depart="124.90" departLane="A1B1_0" departPos="5.10" departSpeed="0.00" departDelay="0.90" arrival="167.80" arrivalLane="B0A0_0" arrivalPos="89.60" arrivalSpeed="7.71" duration="42.90" routeLength="277.76" waitingTime="0.10" waitingCount="1" stopTime="0.00" timeLoss="24.34" rerouteNo="0" devices="tripinfo_passenger62" vType="passenger" speedFactor="1.16" vaporized=""/>
    <tripinfo id="passenger68" depart="138.90" departLane="B1C1_0" departPos="5.10" departSpeed="0.00" departDelay="2.90" arrival="168.00" arrivalLane="C0B0_0" arrivalPos="85.60" arrivalSpeed="12.46" duration="29.10" routeLength="269.76" waitingTime="0.00" waitingCount="0" stopTime="0.00" timeLoss="5.84" rerouteNo="0" devices="tripinfo_passenger68" vType="passenger" speedFactor="0.90" vaporized=""/>
    <tripinfo id="passenger69" depart="138.00" departLane="D0D1_0" departPos="5.10" departSpeed="0.00" departDelay="0.00" arrival="171.70" arrivalLane="D0C0_0" arrivalPos="89.60" arrivalSpeed="11.12" duration="33.70" routeLength="278.95" waitingTime="0.00" waitingCount="0" stopTime="0.00" timeLoss="7.17" rerouteNo="0" devices="tripinfo_passenger69" vType="passenger" speedFactor="0.81" vaporized=""/>
    <tripinfo id="passenger65" depart="132.20" departLane="B1B0_0" departPos="5.10" departSpeed="0.00" departDelay="2.20" arrival="174.40" arrivalLane="A0A1_0" arrivalPos="93.60" arrivalSpeed="14.35" duration="42.20" routeLength="275.31" waitingTime="3.60" waitingCount="1" stopTime="0.00" timeLoss="22.01" rerouteNo="0" devices="tripinfo_passenger65" vType="passenger" speedFactor="1.04" vaporized=""/>
    <tripinfo id="passenger73" depart="146.00" departLane="D1D0_0" departPos="5.10" departSpeed="0.00" departDelay="0.00" arrival="176.20" arrivalLane="D1C1_0" arrivalPos="89.60" arrivalSpeed="13.56" duration="30.20" routeLength="284.11" waitingTime="0.00" waitingCount="0" stopTime="0.00" timeLoss="7.59" rerouteNo="0" devices="tripinfo_passenger73" vType="passenger" speedFactor="0.98" vaporized=""/>
    <tripinfo id="passenger80" depart="161.20" departLane="B1A1_0" departPos="5.10" departSpeed="0.00" departDelay="1.20" arrival="179.30" arrivalLane="A1A0_0" arrivalPos="93.60" arrivalSpeed="16.02" duration="18.10" routeLength="185.84" waitingTime="0.00" waitingCount="0" stopTime="0.00" timeLoss="5.93" rerouteNo="0" devices="tripinfo_passenger80" vType="passenger" speedFactor="1.16" vaporized=""/>