<?xml version="1.0" encoding="UTF-8"?>

<!-- generated on Mon May  3 15:51:26 2021 by Eclipse SUMO Version 1.1.0
<configuration xmlns:xsi="http://www.w3.org/2001/XMLSchema-instance" xsi:noNamespaceSchemaLocation="http://sumo.dlr.de/xsd/sumoConfiguration.xsd">

    <input>
        <net-file value="contrib/ndn4ivc/traces/square-map/map.net.xml"/>
        <route-files value="contrib/ndn4ivc/traces/square-map/passenger_routes.rou.xml,contrib/ndn4ivc/traces/square-map/emergency_routes.rou.xml,contrib/ndn4ivc/traces/square-map/passenger_accident.xml"/>
    </input>

    <output>
        <emission-output value="contrib/ndn4ivc/traces/square-map/sumo-output.emission.xml"/>
        <tripinfo-output value="contrib/ndn4ivc/traces/square-map/sumo-output.tripinfo.xml"/>
    </output>

    <time>
        <begin value="0"/>
        <end value="3600"/>
        <step-length value="0.100000"/>
    </time>

    <report>
        <verbose value="true"/>
        <error-log value="contrib/ndn4ivc/traces/square-map/SumoError.log"/>
        <no-step-log value="true"/>
    </report>

    <traci_server>
        <remote-port value="3419"/>
    </traci_server>

    <random_number>
        <seed value="10"/>
    </random_number>

    <gui_only>
        <gui-settings-file value="contrib/ndn4ivc/traces/square-map/settings.xml"/>
        <quit-on-end value="true"/>
        <start value="true"/>
        <tracker-interval value="0.1"/>
    </gui_only>

</configuration>
-->

<tripinfos xmlns:xsi="http://www.w3.org/2001/XMLSchema-instance" xsi:noNamespaceSchemaLocation="http://sumo.dlr.de/xsd/tripinfo_file.xsd">
    <tripinfo id="passenger5" depart="10.00" departLane="C1B1_0" departPos="5.10" departSpeed="0.00" departDelay="0.00" arrival="25.90" arrivalLane="B1A1_0" arrivalPos="89.60" arrivalSpeed="15.00" duration="15.90" routeLength="184.50" waitingTime="0.00" waitingCount="0" stopTime="0.00" timeLoss="3.67" rerouteNo="0" devices="tripinfo_passenger5" vType="passenger" speedFactor="1.09" vaporized=""/>
    <tripinfo id="passenger0" depart="0.00" departLane="C0C1_0" departPos="5.10" departSpeed="0.00" departDelay="0.00" arrival="27.90" arrivalLane="D1D0_0" arrivalPos="93.60" arrivalSpeed="15.20" duration="27.90" routeLength="275.31" waitingTime="0.00" waitingCount="0" stopTime="0.00" timeLoss="8.72" rerouteNo="0" devices="tripinfo_passenger0" vType="passenger" speedFactor="1.10" vaporized=""/>
    <tripinfo id="passenger9" depart="21.50" departLane="C0B0_0" departPos="5.10" departSpeed="0.00" departDelay="3.50" arrival="30.60" arrivalLane="C0B0_0" arrivalPos="85.60" arrivalSpeed="14.60" duration="9.10" routeLength="80.50" waitingTime="0.00" waitingCount="0" stopTime="0.00" timeLoss="3.52" rerouteNo="0" devices="tripinfo_passenger9" vType="passenger" speedFactor="1.05" vaporized=""/>
    <tripinfo id="passenger1" depart="2.00" departLane="B0B1_0" departPos="5.10" departSpeed="0.00" departDelay="0.00" arrival="31.70" arrivalLane="B0A0_0" arrivalPos="89.60" arrivalSpeed="13.27" duration="29.70" routeLength="269.40" waitingTime="0.00" waitingCount="0" stopTime="0.00" timeLoss="7.69" rerouteNo="0" devices="tripinfo_passenger1" vType="passenger" speedFactor="0.96" vaporized=""/>
    <tripinfo id="passenger6" depart="12.00" departLane="C0C1_0" departPos="5.10" departSpeed="0.00" departDelay="0.00" arrival="32.30" arrivalLane="C1C0_0" arrivalPos="85.60" arrivalSpeed="12.79" duration="20.30" routeLength="170.77" waitingTime="0.00" waitingCount="0" stopTime="0.00" timeLoss="5.95" rerouteNo="0" devices="tripinfo_passenger6" vType="passenger" speedFactor="0.93" vaporized=""/>
    <tripinfo id="passenger2" depart="4.00" departLane="A0A1_0" departPos="5.10" departSpeed="0.00" departDelay="0.00" arrival="34.10" arrivalLane="B1A1_0" arrivalPos="89.60" arrivalSpeed="14.55" duration="30.10" routeLength="274.96" waitingTime="0.00" waitingCount="0" stopTime="0.00" timeLoss="9.90" rerouteNo="0" devices="tripinfo_passenger2" vType="passenger" speedFactor="1.05" vaporized=""/>
    <tripinfo id="emergency0" depart="0.00" departLane="D1D0_0" departPos="6.60" departSpeed="0.00" departDelay="0.00" arrival="46.10" arrivalLane="B1B0_0" arrivalPos="85.60" arrivalSpeed="13.87" duration="46.10" routeLength="464.08" waitingTime="0.00" waitingCount="0" stopTime="0.00" timeLoss="10.52" rerouteNo="0" devices="tripinfo_emergency0" vType="emergency" speedFactor="1.00" vaporized=""/>
    <tripinfo id="passenger15" depart="30.60" departLane="B0B1_0" departPos="5.10" departSpeed="0.00" departDelay="0.60" arrival="49.20" arrivalLane="B1A1_0" arrivalPos="89.60" arrivalSpeed="15.38" duration="18.60" routeLength="184.29" waitingTime="0.00" waitingCount="0" stopTime="0.00" timeLoss="5.96" rerouteNo="0" devices="tripinfo_passenger15" vType="passenger" speedFactor="1.11" vaporized=""/>
    <tripinfo id="passenger3" depart="6.00" departLane="A1B1_0" departPos="5.10" departSpeed="0.00" departDelay="0.00" arrival="49.50" arrivalLane="A0B0_0" arrivalPos="89.60" arrivalSpeed="13.74" duration="43.50" routeLength="377.46" waitingTime="3.00" waitingCount="1" stopTime="0.00" timeLoss="13.78" rerouteNo="0" devices="tripinfo_passenger3" vType="passenger" speedFactor="1.00" vaporized=""/>
    <tripinfo id="passenger12" depart="24.00" departLane="C1D1_0" departPos="5.10" departSpeed="0.00" departDelay="0.00" arrival="52.90" arrivalLane="C1B1_0" arrivalPos="85.60" arrivalSpeed="12.47" duration="28.90" routeLength="278.77" waitingTime="0.00" waitingCount="0" stopTime="0.00" timeLoss="5.58" rerouteNo="0" devices="tripinfo_passenger12" vType="passenger" speedFactor="0.91" vaporized=""/>
    <tripinfo id="passenger8" depart="16.00" departLane="A0B0_0" departPos="5.10" departSpeed="0.00" departDelay="0.00" arrival="56.70" arrivalLane="A1A0_0" arrivalPos="93.60" arrivalSpeed="13.88" duration="40.70" routeLength="373.23" waitingTime="0.00" waitingCount="0" stopTime="0.00" timeLoss="11.62" rerouteNo="0" devices="tripinfo_passenger8" vType="passenger" speedFactor="1.00" vaporized=""/>
    <tripinfo id="passenger11" depart="22.00" departLane="C0C1_0" departPos="5.10" departSpeed="0.00" departDelay="0.00" arrival="60.30" arrivalLane="D0C0_0" arrivalPos="89.60" arrivalSpeed="14.33" duration="38.30" routeLength="367.49" waitingTime="0.00" waitingCount="0" stopTime="0.00" timeLoss="11.04" rerouteNo="0" devices="tripinfo_passenger11" vType="passenger" speedFactor="1.04" vaporized=""/>
    <tripinfo id="passenger14" depart="28.00" departLane="B1C1_0" departPos="5.10" departSpeed="0.00" departDelay="0.00" arrival="64.50" arrivalLane="D0C0_0" arrivalPos="89.60" arrivalSpeed="14.43" duration="36.50" routeLength="372.86" waitingTime="0.00" waitingCount="0" stopTime="0.00" timeLoss="9.79" rerouteNo="0" devices="tripinfo_passenger14" vType="passenger" speedFactor="1.04" vaporized=""/>
    <tripinfo id="passenger17" depart="41.00" departLane="B1B0_0" departPos="5.10" departSpeed="0.00" departDelay="7.00" arrival="73.20" arrivalLane="B1C1_0" arrivalPos="85.60" arrivalSpeed="11.29" duration="32.20" routeLength="265.40" waitingTime="0.00" waitingCount="0" stopTime="0.00" timeLoss="6.78" rerouteNo="0" devices="tripinfo_passenger17" vType="passenger" speedFactor="0.82" vaporized=""/>
    <tripinfo id="passenger23" depart="47.10" departLane="C1B1_0" departPos="5.10" departSpeed="0.00" departDelay="1.10" arrival="75.00" arrivalLane="B0A0_0" arrivalPos="89.60" arrivalSpeed="14.07" duration="27.90" routeLength="278.92" waitingTime="0.00" waitingCount="0" stopTime="0.00" timeLoss="6.70" rerouteNo="0" devices="tripinfo_passenger23" vType="passenger" speedFactor="1.02" vaporized=""/>
    <tripinfo id="passenger28" depart="56.70" departLane="A0B0_0" departPos="5.10" departSpeed="0.00" departDelay="0.70" arrival="76.00" arrivalLane="B0B1_0" arrivalPos="85.60" arrivalSpeed="12.89" duration="19.30" routeLength="184.29" waitingTime="0.00" waitingCount="0" stopTime="0.00" timeLoss="4.21" rerouteNo="0" devices="tripinfo_passenger28" vType="passenger" speedFactor="0.93" vaporized=""/>
    <tripinfo id="passenger20" depart="40.90" departLane="A0A1_0" departPos="5.10" departSpeed="0.00" departDelay="0.90" arrival="78.50" arrivalLane="C1B1_0" arrivalPos="85.60" arrivalSpeed="13.60" duration="37.60" routeLength="370.96" waitingTime="0.00" waitingCount="0" stopTime="0.00" timeLoss="8.98" rerouteNo="0" devices="tripinfo_passenger20" vType="passenger" speedFactor="0.98" vaporized=""/>
    <tripinfo id="passenger25" depart="51.50" departLane="A1A0_0" departPos="5.10" departSpeed="0.00" departDelay="1.50" arrival="80.30" arrivalLane="A0A1_0" arrivalPos="93.60" arrivalSpeed="8.78" duration="28.80" routeLength="186.77" waitingTime="4.90" waitingCount="1" stopTime="0.00" timeLoss="15.08" rerouteNo="0" devices="tripinfo_passenger25" vType="passenger" speedFactor="1.05" vaporized=""/>
    <tripinfo id="passenger16" depart="32.00" departLane="A0B0_0" departPos="5.10" departSpeed="0.00" departDelay="0.00" arrival="84.00" arrivalLane="C0B0_0" arrivalPos="85.60" arrivalSpeed="13.15" duration="52.00" routeLength="468.18" waitingTime="0.00" waitingCount="0" stopTime="0.00" timeLoss="13.47" rerouteNo="1" devices="tripinfo_passenger16" vType="passenger" speedFactor="0.95" vaporized=""/>
    <tripinfo id="passenger19" depart="38.00" departLane="B0B1_0" departPos="5.10" departSpeed="0.00" departDelay="0.00" arrival="85.90" arrivalLane="C0C1_0" arrivalPos="85.60" arrivalSpeed="5.65" duration="47.90" routeLength="360.03" waitingTime="2.60" waitingCount="1" stopTime="0.00" timeLoss="18.79" rerouteNo="0" devices="tripinfo_passenger19" vType="passenger" speedFactor="0.98" vaporized=""/>
    <tripinfo id="emergency1" depart="30.00" departLane="B1A1_0" departPos="6.60" departSpeed="0.00" departDelay="0.00" arrival="86.50" arrivalLane="D0D1_0" arrivalPos="93.60" arrivalSpeed="13.86" duration="56.50" routeLength="575.72" waitingTime="0.00" waitingCount="0" stopTime="0.00" timeLoss="12.74" rerouteNo="0" devices="tripinfo_emergency1" vType="emergency" speedFactor="1.00" vaporized=""/>
    <tripinfo id="passenger27" depart="55.20" departLane="B0A0_0" departPos="5.10" departSpeed="0.00" departDelay="1.20" arrival="87.80" arrivalLane="A1B1_0" arrivalPos="89.60" arrivalSpeed="11.19" duration="32.60" routeLength="272.86" waitingTime="0.00" waitingCount="0" stopTime="0.00" timeLoss="7.24" rerouteNo="0" devices="tripinfo_passenger27" vType="passenger" speedFactor="0.81" vaporized=""/>
    <tripinfo id="emergency2" depart="60.00" departLane="D1C1_0" departPos="6.60" departSpeed="0.00" departDelay="0.00" arrival="90.20" arrivalLane="D1D0_0" arrivalPos="93.60" arrivalSpeed="13.82" duration="30.20" routeLength="273.46" waitingTime="0.00" waitingCount="0" stopTime="0.00" timeLoss="9.11" rerouteNo="0" devices="tripinfo_emergency2" vType="emergency" speedFactor="1.00" vaporized=""/>
    <tripinfo id="passenger13" depart="30.60" departLane="B0A0_0" departPos="5.10" departSpeed="0.00" departDelay="4.60" arrival="90.50" arrivalLane="C1C0_0" arrivalPos="85.60" arrivalSpeed="11.30" duration="59.90" routeLength="467.82" waitingTime="7.50" waitingCount="2" stopTime="0.00" timeLoss="25.89" rerouteNo="1" devices="tripinfo_passenger13" vType="passenger" speedFactor="1.08" vaporized=""/>
    <tripinfo id="passenger18" depart="36.00" departLane="A1A0_0" departPos="5.10" departSpeed="0.00" departDelay="0.00" arrival="92.60" arrivalLane="C0B0_0" arrivalPos="85.60" arrivalSpeed="14.58" duration="56.60" routeLength="569.52" waitingTime="0.00" waitingCount="0" stopTime="0.00" timeLoss="14.14" rerouteNo="1" devices="tripinfo_passenger18" vType="passenger" speedFactor="1.05" vaporized=""/>
    <tripinfo id="passenger24" depart="48.30" departLane="D1D0_0" departPos="5.10" departSpeed="0.00" departDelay="0.30" arrival="93.00" arrivalLane="C1B1_0" arrivalPos="85.60" arrivalSpeed="14.56" duration="44.70" routeLength="375.10" waitingTime="4.30" waitingCount="1" stopTime="0.00" timeLoss="17.26" rerouteNo="0" devices="tripinfo_passenger24" vType="passenger" speedFactor="1.05" vaporized=""/>
    <tripinfo id="passenger42" depart="84.00" departLane="B0A0_0" departPos="5.10" departSpeed="0.00" departDelay="0.00" arrival="94.60" arrivalLane="B0A0_0" arrivalPos="89.60" arrivalSpeed="11.10" duration="10.60" routeLength="84.50" waitingTime="0.00" waitingCount="0" stopTime="0.00" timeLoss="4.68" rerouteNo="0" devices="tripinfo_passenger42" vType="passenger" speedFactor="1.03" vaporized=""/>
    <tripinfo id="passenger26" depart="52.00" departLane="D1C1_0" departPos="5.10" departSpeed="0.00" departDelay="0.00" arrival="96.50" arrivalLane="A1B1_0" arrivalPos="89.60" arrivalSpeed="14.75" duration="44.50" routeLength="382.77" waitingTime="4.30" waitingCount="1" stopTime="0.00" timeLoss="17.70" rerouteNo="0" devices="tripinfo_passenger26" vType="passenger" speedFactor="1.07" vaporized=""/>
    <tripinfo id="passenger30" depart="60.00" departLane="A1B1_0" departPos="5.10" departSpeed="0.00" departDelay="0.00" arrival="96.70" arrivalLane="C0C1_0" arrivalPos="85.60" arrivalSpeed="14.17" duration="36.70" routeLength="369.40" waitingTime="0.00" waitingCount="0" stopTime="0.00" timeLoss="9.09" rerouteNo="0" devices="tripinfo_passenger30" vType="passenger" speedFactor="1.03" vaporized=""/>
    <tripinfo id="passenger34" depart="68.80" departLane="C1C0_0" departPos="5.10" departSpeed="0.00" departDelay="0.80" arrival="97.80" arrivalLane="C1D1_0" arrivalPos="89.60" arrivalSpeed="14.23" duration="29.00" routeLength="269.40" waitingTime="0.00" waitingCount="0" stopTime="0.00" timeLoss="8.48" rerouteNo="0" devices="tripinfo_passenger34" vType="passenger" speedFactor="1.03" vaporized=""/>
    <tripinfo id="passenger21" depart="54.40" departLane="A1B1_0" departPos="5.10" departSpeed="0.00" departDelay="12.40" arrival="100.00" arrivalLane="C1C0_0" arrivalPos="85.60" arrivalSpeed="14.98" duration="45.60" routeLength="458.66" waitingTime="0.00" waitingCount="0" stopTime="0.00" timeLoss="12.11" rerouteNo="1" devices="tripinfo_passenger21" vType="passenger" speedFactor="1.08" vaporized=""/>
    <tripinfo id="passenger31" depart="62.00" departLane="D1D0_0" departPos="5.10" departSpeed="0.00" departDelay="0.00" arrival="101.70" arrivalLane="C1D1_0" arrivalPos="89.60" arrivalSpeed="13.05" duration="39.70" routeLength="373.94" waitingTime="0.00" waitingCount="0" stopTime="0.00" timeLoss="9.11" rerouteNo="0" devices="tripinfo_passenger31" vType="passenger" speedFactor="0.94" vaporized=""/>
    <tripinfo id="passenger22" depart="44.00" departLane="C0D0_0" departPos="5.10" departSpeed="0.00" departDelay="0.00" arrival="106.00" arrivalLane="A1B1_0" arrivalPos="89.60" arrivalSpeed="13.91" duration="62.00" routeLength="571.13" waitingTime="5.50" waitingCount="1" stopTime="0.00" timeLoss="19.15" rerouteNo="0" devices="tripinfo_passenger22" vType="passenger" speedFactor="1.00" vaporized=""/>
    <tripinfo id="passenger35" depart="70.10" departLane="B1A1_0" departPos="5.10" departSpeed="0.00" departDelay="0.10" arrival="109.20" arrivalLane="A0B0_0" arrivalPos="89.60" arrivalSpeed="12.86" duration="39.10" routeLength="283.18" waitingTime="0.90" waitingCount="1" stopTime="0.00" timeLoss="15.54" rerouteNo="0" devices="tripinfo_passenger35" vType="passenger" speedFactor="0.93" vaporized=""/>
    <tripinfo id="passenger32" depart="64.20" departLane="B1A1_0" departPos="5.10" departSpeed="0.00" departDelay="0.20" arrival="111.60" arrivalLane="C1B1_0" arrivalPos="85.60" arrivalSpeed="14.28" duration="47.40" routeLength="369.05" waitingTime="8.90" waitingCount="1" stopTime="0.00" timeLoss="19.79" rerouteNo="0" devices="tripinfo_passenger32" vType="passenger" speedFactor="1.03" vaporized=""/>
    <tripinfo id="passenger40" depart="80.50" departLane="B0A0_0" departPos="5.10" departSpeed="0.00" departDelay="0.50" arrival="113.70" arrivalLane="A1B1_0" arrivalPos="89.60" arrivalSpeed="11.02" duration="33.20" routeLength="272.86" waitingTime="0.00" waitingCount="0" stopTime="0.00" timeLoss="7.49" rerouteNo="0" devices="tripinfo_passenger40" vType="passenger" speedFactor="0.80" vaporized=""/>
    <tripinfo id="passenger29" depart="59.10" departLane="C1D1_0" departPos="5.10" departSpeed="0.00" departDelay="1.10" arrival="117.10" arrivalLane="B0A0_0" arrivalPos="89.60" arrivalSpeed="11.48" duration="58.00" routeLength="477.19" waitingTime="3.80" waitingCount="1" stopTime="0.00" timeLoss="13.84" rerouteNo="0" devices="tripinfo_passenger29" vType="passenger" speedFactor="0.83" vaporized=""/>
    <tripinfo id="passenger33" depart="71.80" departLane="A0A1_0" departPos="5.10" departSpeed="0.00" departDelay="5.80" arrival="117.70" arrivalLane="C0C1_0" arrivalPos="85.60" arrivalSpeed="14.35" duration="45.90" routeLength="465.58" waitingTime="0.00" waitingCount="0" stopTime="0.00" timeLoss="11.34" rerouteNo="0" devices="tripinfo_passenger33" vType="passenger" speedFactor="1.03" vaporized=""/>
    <tripinfo id="passenger38" depart="78.50" departLane="B0B1_0" departPos="5.10" departSpeed="0.00" departDelay="2.50" arrival="122.00" arrivalLane="D0C0_0" arrivalPos="89.60" arrivalSpeed="15.89" duration="43.50" routeLength="467.49" waitingTime="0.00" waitingCount="0" stopTime="0.00" timeLoss="12.57" rerouteNo="0" devices="tripinfo_passenger38" vType="passenger" speedFactor="1.15" vaporized=""/>
    <tripinfo id="passenger41" depart="82.80" departLane="A1A0_0" departPos="5.10" departSpeed="0.00" departDelay="0.80" arrival="124.00" arrivalLane="B1C1_0" arrivalPos="85.60" arrivalSpeed="12.74" duration="41.20" routeLength="378.95" waitingTime="0.00" waitingCount="0" stopTime="0.00" timeLoss="9.90" rerouteNo="0" devices="tripinfo_passenger41" vType="passenger" speedFactor="0.92" vaporized=""/>
    <tripinfo id="emergency3" depart="96.50" departLane="B1A1_0" departPos="6.60" departSpeed="0.00" departDelay="6.50" arrival="125.60" arrivalLane="B1C1_0" arrivalPos="85.60" arrivalSpeed="13.87" duration="29.10" routeLength="277.27" waitingTime="0.60" waitingCount="1" stopTime="0.00" timeLoss="8.24" rerouteNo="0" devices="tripinfo_emergency3" vType="emergency" speedFactor="1.00" vaporized=""/>
    <tripinfo id="passenger44" depart="96.50" departLane="B1C1_0" departPos="5.10" departSpeed="0.00" departDelay="8.50" arrival="126.70" arrivalLane="B1A1_0" arrivalPos="89.60" arrivalSpeed="11.45" duration="30.20" routeLength="274.78" waitingTime="0.00" waitingCount="0" stopTime="0.00" timeLoss="5.19" rerouteNo="0" devices="tripinfo_passenger44" vType="passenger" speedFactor="0.83" vaporized=""/>
    <tripinfo id="passenger36" depart="72.80" departLane="B1A1_0" departPos="5.10" departSpeed="0.00" departDelay="0.80" arrival="128.00" arrivalLane="C0B0_0" arrivalPos="85.60" arrivalSpeed="14.09" duration="55.20" routeLength="468.03" waitingTime="0.00" waitingCount="0" stopTime="0.00" timeLoss="19.84" rerouteNo="0" devices="tripinfo_passenger36" vType="passenger" speedFactor="1.02" vaporized=""/>
    <tripinfo id="passenger46" depart="92.50" departLane="C1B1_0" departPos="5.10" departSpeed="0.00" departDelay="0.50" arrival="131.70" arrivalLane="B1B0_0" arrivalPos="85.60" arrivalSpeed="7.22" duration="39.20" routeLength="180.29" waitingTime="7.60" waitingCount="1" stopTime="0.00" timeLoss="23.68" rerouteNo="0" devices="tripinfo_passenger46" vType="passenger" speedFactor="0.89" vaporized=""/>
    <tripinfo id="passenger37" depart="77.00" departLane="C1D1_0" departPos="5.10" departSpeed="0.00" departDelay="3.00" arrival="133.30" arrivalLane="B1B0_0" arrivalPos="85.60" arrivalSpeed="8.95" duration="56.30" routeLength="378.56" waitingTime="5.90" waitingCount="1" stopTime="0.00" timeLoss="23.91" rerouteNo="0" devices="tripinfo_passenger37" vType="passenger" speedFactor="0.89" vaporized=""/>
    <tripinfo id="passenger48" depart="96.00" departLane="C0B0_0" departPos="5.10" departSpeed="0.00" departDelay="0.00" arrival="134.70" arrivalLane="A1A0_0" arrivalPos="93.60" arrivalSpeed="13.13" duration="38.70" routeLength="378.95" waitingTime="0.00" waitingCount="0" stopTime="0.00" timeLoss="8.32" rerouteNo="0" devices="tripinfo_passenger48" vType="passenger" speedFactor="0.95" vaporized=""/>
    <tripinfo id="passenger43" depart="87.50" departLane="D1D0_0" departPos="5.10" departSpeed="0.00" departDelay="1.50" arrival="135.90" arrivalLane="B1A1_0" arrivalPos="89.60" arrivalSpeed="12.51" duration="48.40" routeLength="479.10" waitingTime="0.00" waitingCount="0" stopTime="0.00" timeLoss="8.12" rerouteNo="0" devices="tripinfo_passenger43" vType="passenger" speedFactor="0.91" vaporized=""/>
    <tripinfo id="passenger50" depart="100.00" departLane="A1B1_0" departPos="5.10" departSpeed="0.00" departDelay="0.00" arrival="137.60" arrivalLane="A0B0_0" arrivalPos="89.60" arrivalSpeed="14.92" duration="37.60" routeLength="377.46" waitingTime="0.00" waitingCount="0" stopTime="0.00" timeLoss="10.17" rerouteNo="0" devices="tripinfo_passenger50" vType="passenger" speedFactor="1.08" vaporized=""/>
    <tripinfo id="passenger55" depart="112.30" departLane="B0A0_0" departPos="5.10" departSpeed="0.00" departDelay="2.30" arrival="143.40" arrivalLane="A1B1_0" arrivalPos="89.60" arrivalSpeed="12.03" duration="31.10" routeLength="272.86" waitingTime="0.00" waitingCount="0" stopTime="0.00" timeLoss="7.62" rerouteNo="0" devices="tripinfo_passenger55" vType="passenger" speedFactor="0.87" vaporized=""/>
    <tripinfo id="passenger47" depart="94.00" departLane="C0D0_0" departPos="5.10" departSpeed="0.00" departDelay="0.00" arrival="144.90" arrivalLane="B1A1_0" arrivalPos="89.60" arrivalSpeed="7.87" duration="50.90" routeLength="477.19" waitingTime="0.00" waitingCount="0" stopTime="0.00" timeLoss="15.13" rerouteNo="0" devices="tripinfo_passenger47" vType="passenger" speedFactor="1.03" vaporized=""/>
    <tripinfo id="passenger68" depart="136.00" departLane="A1A0_0" departPos="5.10" departSpeed="0.00" departDelay="0.00" arrival="147.20" arrivalLane="A1A0_0" arrivalPos="93.60" arrivalSpeed="10.53" duration="11.20" routeLength="88.50" waitingTime="0.00" waitingCount="0" stopTime="0.00" timeLoss="4.09" rerouteNo="0" devices="tripinfo_passenger68" vType="passenger" speedFactor="0.90" vaporized=""/>
    <tripinfo id="passenger45" depart="90.00" departLane="B0A0_0" departPos="5.10" departSpeed="0.00" departDelay="0.00" arrival="147.50" arrivalLane="C0B0_0" arrivalPos="85.60" arrivalSpeed="14.71" duration="57.50" routeLength="562.45" waitingTime="0.70" waitingCount="1" stopTime="0.00" timeLoss="15.75" rerouteNo="1" devices="tripinfo_passenger45" vType="passenger" speedFactor="1.07" vaporized=""/>
    <tripinfo id="passenger39" depart="81.00" departLane="D1C1_0" departPos="5.10" departSpeed="0.00" departDelay="3.00" arrival="149.20" arrivalLane="A0A1_0" arrivalPos="93.60" arrivalSpeed="13.24" duration="68.20" routeLength="479.10" waitingTime="11.70" waitingCount="2" stopTime="0.00" timeLoss="30.33" rerouteNo="0" devices="tripinfo_passenger39" vType="passenger" speedFactor="0.96" vaporized=""/>
    <tripinfo id="passenger51" depart="103.30" departLane="A1A0_0" departPos="5.10" departSpeed="0.00" departDelay="1.30" arrival="154.20" arrivalLane="C1C0_0" arrivalPos="85.60" arrivalSpeed="14.67" duration="50.90" routeLength="474.89" waitingTime="0.00" waitingCount="0" stopTime="0.00" timeLoss="15.90" rerouteNo="1" devices="tripinfo_passenger51" vType="passenger" speedFactor="1.06" vaporized=""/>
    <tripinfo id="emergency4" depart="124.00" departLane="C1D1_0" departPos="6.60" departSpeed="0.00" departDelay="4.00" arrival="155.00" arrivalLane="D0D1_0" arrivalPos="93.60" arrivalSpeed="13.79" duration="31.00" routeLength="277.45" waitingTime="0.00" waitingCount="0" stopTime="0.00" timeLoss="9.60" rerouteNo="0" devices="tripinfo_emergency4" vType="emergency" speedFactor="1.00" vaporized=""/>
    <tripinfo id="passenger49" depart="101.50" departLane="B1B0_0" departPos="5.10" departSpeed="0.00" departDelay="3.50" arrival="155.90" arrivalLane="C1C0_0" arrivalPos="85.60" arrivalSpeed="15.94" duration="54.40" routeLength="360.03" waitingTime="14.30" waitingCount="1" stopTime="0.00" timeLoss="29.82" rerouteNo="1" devices="tripinfo_passenger49" vType="passenger" speedFactor="1.15" vaporized=""/>
    <tripinfo id="passenger56" depart="113.70" departLane="D0D1_0" departPos="5.10" departSpeed="0.00" departDelay="1.70" arrival="157.30" arrivalLane="B0A0_0" arrivalPos="89.60" arrivalSpeed="14.81" duration="43.60" routeLength="482.95" waitingTime="0.00" waitingCount="0" stopTime="0.00" timeLoss="9.72" rerouteNo="0" devices="tripinfo_passenger56" vType="passenger" speedFactor="1.07" vaporized=""/>
    <tripinfo id="passenger54" depart="110.00" departLane="C0B0_0" departPos="5.10" departSpeed="0.00" departDelay="2.00" arrival="158.30" arrivalLane="D1C1_0" arrivalPos="89.60" arrivalSpeed="12.74" duration="48.30" routeLength="468.03" waitingTime="0.00" waitingCount="0" stopTime="0.00" timeLoss="9.06" rerouteNo="1" devices="tripinfo_passenger54" vType="passenger" speedFactor="0.92" vaporized=""/>
    <tripinfo id="passenger60" depart="120.00" departLane="C1D1_0" departPos="5.10" departSpeed="0.00" departDelay="0.00" arrival="160.00" arrivalLane="B1A1_0" arrivalPos="89.60" arrivalSpeed="11.34" duration="40.00" routeLength="382.77" waitingTime="0.00" waitingCount="0" stopTime="0.00" timeLoss="5.23" rerouteNo="0" devices="tripinfo_passenger60" vType="passenger" speedFactor="0.82" vaporized=""/>
    <tripinfo id="passenger52" depart="111.00" departLane="C1B1_0" departPos="5.10" departSpeed="0.00" departDelay="7.00" arrival="162.70" arrivalLane="D0D1_0" arrivalPos="93.60" arrivalSpeed="13.01" duration="51.70" routeLength="469.23" waitingTime="1.30" waitingCount="1" stopTime="0.00" timeLoss="13.37" rerouteNo="0" devices="tripinfo_passenger52" vType="passenger" speedFactor="0.95" vaporized=""/>
    <tripinfo id="passenger58" depart="116.30" departLane="D0D1_0" departPos="5.10" departSpeed="0.00" departDelay="0.30" arrival="162.90" arrivalLane="A1A0_0" arrivalPos="93.60" arrivalSpeed="12.89" duration="46.60" routeLength="491.18" waitingTime="0.00" waitingCount="0" stopTime="0.00" timeLoss="6.97" rerouteNo="0" devices="tripinfo_passenger58" vType="passenger" speedFactor="0.93" vaporized=""/>
    <tripinfo id="passenger64" depart="128.00" departLane="C0B0_0" departPos="5.10" departSpeed="0.00" departDelay="0.00" arrival="166.30" arrivalLane="C1C0_0" arrivalPos="85.60" arrivalSpeed="12.89" duration="38.30" routeLength="364.39" waitingTime="0.00" waitingCount="0" stopTime="0.00" timeLoss="7.70" rerouteNo="1" devices="tripinfo_passenger64" vType="passenger" speedFactor="0.93" vaporized=""/>
    <tripinfo id="passenger73" depart="146.80" departLane="C0D0_0" departPos="5.10" departSpeed="0.00" departDelay="0.80" arrival="166.90" arrivalLane="D0C0_0" arrivalPos="89.60" arrivalSpeed="13.60" duration="20.10" routeLength="178.77" waitingTime="0.00" waitingCount="0" stopTime="0.00" timeLoss="6.05" rerouteNo="0" devices="tripinfo_passenger73" vType="passenger" speedFactor="0.98" vaporized=""/>
    <tripinfo id="passenger53" depart="112.30" departLane="A1B1_0" departPos="5.10" departSpeed="0.00" departDelay="6.30" arrival="167.60" arrivalLane="A0A1_0" arrivalPos="93.60" arrivalSpeed="13.36" duration="55.30" routeLength="378.39" waitingTime="11.80" waitingCount="1" stopTime="0.00" timeLoss="24.30" rerouteNo="0" devices="tripinfo_passenger53" vType="passenger" speedFactor="0.97" vaporized=""/>
    <tripinfo id="passenger66" depart="132.00" departLane="B1A1_0" departPos="5.10" departSpeed="0.00" departDelay="0.00" arrival="167.70" arrivalLane="C1D1_0" arrivalPos="89.60" arrivalSpeed="13.87" duration="35.70" routeLength="382.77" waitingTime="0.00" waitingCount="0" stopTime="0.00" timeLoss="7.28" rerouteNo="0" devices="tripinfo_passenger66" vType="passenger" speedFactor="1.00" vaporized=""/>
    <tripinfo id="passenger65" depart="133.10" departLane="B1C1_0" departPos="5.10" departSpeed="0.00" departDelay="3.10" arrival="171.70" arrivalLane="B0A0_0" arrivalPos="89.60" arrivalSpeed="12.88" duration="38.60" routeLength="369.20" waitingTime="0.00" waitingCount="0" stopTime="0.00" timeLoss="10.76" rerouteNo="0" devices="tripinfo_passenger65" vType="passenger" speedFactor="1.04" vaporized=""/>
    <tripinfo id="passenger63" depart="130.70" departLane="A1A0_0" departPos="5.10" departSpeed="0.00" departDelay="4.70" arrival="174.40" arrivalLane="B1A1_0" arrivalPos="89.60" arrivalSpeed="15.06" duration="43.70" routeLength="373.23" waitingTime="0.00" waitingCount="0" stopTime="0.00" timeLoss="16.80" rerouteNo="0" devices="tripinfo_passenger63" vType="passenger" speedFactor="1.08" vaporized=""/>
    <tripinfo id="passenger59" depart="128.00" departLane="A1A0_0" departPos="5.10" departSpeed="0.00" departDelay="10.00" arrival="175.70" arrivalLane="C1D1_0" arrivalPos="89.60" arrivalSpeed="14.18" duration="47.70" routeLength="482.95" waitingTime="1.70" waitingCount="1" stopTime="0.00" timeLoss="12.53" rerouteNo="0" devices="tripinfo_passenger59" vType="passenger" speedFactor="1.03" vaporized=""/>
    <tripinfo id="passenger71" depart="160.00" departLane="A1B1_0" departPos="5.10" departSpeed="0.00" departDelay="18.00" arrival="178.10" arrivalLane="B1C1_0" arrivalPos="85.60" arrivalSpeed="10.27" duration="18.10" routeLength="184.50" waitingTime="0.00" waitingCount="0" stopTime="0.00" timeLoss="5.66" rerouteNo="0" devices="tripinfo_passenger71" vType="passenger" speedFactor="1.07" vaporized=""/>
    <tripinfo id="passenger62" depart="127.60" departLane="D1D0_0" departPos="5.10" departSpeed="0.00" departDelay="3.60" arrival="178.70" arrivalLane="C1C0_0" arrivalPos="85.60" arrivalSpeed="16.03" duration="51.10" routeLength="564.57" waitingTime="0.00" waitingCount="0" stopTime="0.00" timeLoss="13.75" rerouteNo="1" devices="tripinfo_passenger62" vType="passenger" speedFactor="1.16" vaporized=""/>