<?xml version="1.0" encoding="UTF-8"?>

<!-- generated on Mon May  3 15:26:41 2021 by Eclipse SUMO Version 1.1.0
<configuration xmlns:xsi="http://www.w3.org/2001/XMLSchema-instance" xsi:noNamespaceSchemaLocation="http://sumo.dlr.de/xsd/sumoConfiguration.xsd">

    <input>
        <net-file value="contrib/ndn4ivc/traces/square-map/map.net.xml"/>
        <route-files value="contrib/ndn4ivc/traces/square-map/passenger_routes.rou.xml,contrib/ndn4ivc/traces/square-map/emergency_routes.rou.xml,contrib/ndn4ivc/traces/square-map/passenger_accident.xml"/>
    </input>

    <output>
        <emission-output value="contrib/ndn4ivc/traces/square-map/sumo-output.emission.xml"/>
        <tripinfo-output value="contrib/ndn4ivc/traces/square-map/sumo-output.tripinfo.xml"/>
    </output>

    <time>
        <begin value="0"/>
        <end value="3600"/>
        <step-length value="0.100000"/>
    </time>

    <report>
        <verbose value="true"/>
        <error-log value="contrib/ndn4ivc/traces/square-map/SumoError.log"/>
        <no-step-log value="true"/>
    </report>

    <traci_server>
        <remote-port value="3419"/>
    </traci_server>

    <random_number>
        <seed value="10"/>
    </random_number>

    <gui_only>
        <gui-settings-file value="contrib/ndn4ivc/traces/square-map/settings.xml"/>
        <quit-on-end value="true"/>
        <start value="true"/>
        <tracker-interval value="0.1"/>
    </gui_only>

</configuration>
-->

<tripinfos xmlns:xsi="http://www.w3.org/2001/XMLSchema-instance" xsi:noNamespaceSchemaLocation="http://sumo.dlr.de/xsd/tripinfo_file.xsd">
    <tripinfo id="passenger2" depart="4.00" departLane="C0C1_0" departPos="5.10" departSpeed="0.00" departDelay="0.00" arrival="32.80" arrivalLane="D1C1_0" arrivalPos="89.60" arrivalSpeed="14.53" duration="28.80" routeLength="273.40" waitingTime="0.00" waitingCount="0" stopTime="0.00" timeLoss="8.37" rerouteNo="0" devices="tripinfo_passenger2" vType="passenger" speedFactor="1.05" vaporized=""/>
    <tripinfo id="passenger0" depart="0.00" departLane="B0C0_0" departPos="5.10" departSpeed="0.00" departDelay="0.00" arrival="36.20" arrivalLane="B1C1_0" arrivalPos="85.60" arrivalSpeed="15.26" duration="36.20" routeLength="360.04" waitingTime="0.00" waitingCount="0" stopTime="0.00" timeLoss="10.55" rerouteNo="0" devices="tripinfo_passenger0" vType="passenger" speedFactor="1.10" vaporized=""/>
    <tripinfo id="passenger1" depart="2.00" departLane="C1B1_0" departPos="5.10" departSpeed="0.00" departDelay="0.00" arrival="41.60" arrivalLane="A0A1_0" arrivalPos="93.60" arrivalSpeed="13.30" duration="39.60" routeLength="375.10" waitingTime="0.00" waitingCount="0" stopTime="0.00" timeLoss="9.30" rerouteNo="0" devices="tripinfo_passenger1" vType="passenger" speedFactor="0.96" vaporized=""/>
    <tripinfo id="emergency0" depart="0.00" departLane="B1A1_0" departPos="6.60" departSpeed="0.00" departDelay="0.00" arrival="44.60" arrivalLane="D1D0_0" arrivalPos="93.60" arrivalSpeed="13.83" duration="44.60" routeLength="477.45" waitingTime="0.00" waitingCount="0" stopTime="0.00" timeLoss="8.80" rerouteNo="0" devices="tripinfo_emergency0" vType="emergency" speedFactor="1.00" vaporized=""/>
    <tripinfo id="passenger11" depart="24.50" departLane="B0A0_0" departPos="5.10" departSpeed="0.00" departDelay="2.50" arrival="44.80" arrivalLane="A0B0_0" arrivalPos="89.60" arrivalSpeed="14.34" duration="20.30" routeLength="178.77" waitingTime="0.00" waitingCount="0" stopTime="0.00" timeLoss="6.87" rerouteNo="0" devices="tripinfo_passenger11" vType="passenger" speedFactor="1.04" vaporized=""/>
    <tripinfo id="passenger10" depart="20.00" departLane="C0C1_0" departPos="5.10" departSpeed="0.00" departDelay="0.00" arrival="58.40" arrivalLane="A1B1_0" arrivalPos="89.60" arrivalSpeed="13.95" duration="38.40" routeLength="378.56" waitingTime="0.00" waitingCount="0" stopTime="0.00" timeLoss="9.73" rerouteNo="0" devices="tripinfo_passenger10" vType="passenger" speedFactor="1.01" vaporized=""/>
    <tripinfo id="passenger19" depart="38.60" departLane="A1A0_0" departPos="5.10" departSpeed="0.00" departDelay="0.60" arrival="59.60" arrivalLane="A0A1_0" arrivalPos="93.60" arrivalSpeed="13.50" duration="21.00" routeLength="186.77" waitingTime="0.00" waitingCount="0" stopTime="0.00" timeLoss="6.20" rerouteNo="0" devices="tripinfo_passenger19" vType="passenger" speedFactor="0.98" vaporized=""/>
    <tripinfo id="passenger14" depart="28.00" departLane="A0A1_0" departPos="5.10" departSpeed="0.00" departDelay="0.00" arrival="61.60" arrivalLane="C1D1_0" arrivalPos="89.60" arrivalSpeed="14.35" duration="33.60" routeLength="384.68" waitingTime="0.00" waitingCount="0" stopTime="0.00" timeLoss="6.46" rerouteNo="0" devices="tripinfo_passenger14" vType="passenger" speedFactor="1.04" vaporized=""/>
    <tripinfo id="passenger13" depart="31.60" departLane="D1C1_0" departPos="5.10" departSpeed="0.00" departDelay="5.60" arrival="63.00" arrivalLane="C0D0_0" arrivalPos="89.60" arrivalSpeed="7.77" duration="31.40" routeLength="288.08" waitingTime="0.00" waitingCount="0" stopTime="0.00" timeLoss="10.86" rerouteNo="0" devices="tripinfo_passenger13" vType="passenger" speedFactor="1.08" vaporized=""/>
    <tripinfo id="passenger17" depart="34.00" departLane="B0A0_0" departPos="5.10" departSpeed="0.00" departDelay="0.00" arrival="66.30" arrivalLane="A1B1_0" arrivalPos="89.60" arrivalSpeed="11.31" duration="32.30" routeLength="272.86" waitingTime="0.00" waitingCount="0" stopTime="0.00" timeLoss="7.12" rerouteNo="0" devices="tripinfo_passenger17" vType="passenger" speedFactor="0.82" vaporized=""/>
    <tripinfo id="passenger12" depart="24.00" departLane="D0D1_0" departPos="5.10" departSpeed="0.00" departDelay="0.00" arrival="67.80" arrivalLane="C0C1_0" arrivalPos="85.60" arrivalSpeed="12.51" duration="43.80" routeLength="373.58" waitingTime="1.40" waitingCount="1" stopTime="0.00" timeLoss="11.80" rerouteNo="0" devices="tripinfo_passenger12" vType="passenger" speedFactor="0.91" vaporized=""/>
    <tripinfo id="passenger5" depart="10.00" departLane="B0A0_0" departPos="5.10" departSpeed="0.00" departDelay="0.00" arrival="68.00" arrivalLane="B1A1_0" arrivalPos="89.60" arrivalSpeed="15.06" duration="58.00" routeLength="382.35" waitingTime="17.60" waitingCount="1" stopTime="0.00" timeLoss="30.47" rerouteNo="0" devices="tripinfo_passenger5" vType="passenger" speedFactor="1.09" vaporized=""/>
    <tripinfo id="passenger6" depart="12.00" departLane="D0D1_0" departPos="5.10" departSpeed="0.00" departDelay="0.00" arrival="70.40" arrivalLane="A0B0_0" arrivalPos="89.60" arrivalSpeed="12.74" duration="58.40" routeLength="577.22" waitingTime="0.00" waitingCount="0" stopTime="0.00" timeLoss="10.89" rerouteNo="0" devices="tripinfo_passenger6" vType="passenger" speedFactor="0.93" vaporized=""/>
    <tripinfo id="passenger15" depart="30.20" departLane="C1D1_0" departPos="5.10" departSpeed="0.00" departDelay="0.20" arrival="71.90" arrivalLane="A1A0_0" arrivalPos="93.60" arrivalSpeed="15.34" duration="41.70" routeLength="484.11" waitingTime="0.00" waitingCount="0" stopTime="0.00" timeLoss="8.92" rerouteNo="0" devices="tripinfo_passenger15" vType="passenger" speedFactor="1.11" vaporized=""/>
    <tripinfo id="passenger26" depart="52.20" departLane="D1D0_0" departPos="5.10" departSpeed="0.00" departDelay="0.20" arrival="72.40" arrivalLane="D0D1_0" arrivalPos="93.60" arrivalSpeed="14.74" duration="20.20" routeLength="186.77" waitingTime="0.00" waitingCount="0" stopTime="0.00" timeLoss="6.66" rerouteNo="0" devices="tripinfo_passenger26" vType="passenger" speedFactor="1.07" vaporized=""/>
    <tripinfo id="passenger16" depart="32.00" departLane="A0B0_0" departPos="5.10" departSpeed="0.00" departDelay="0.00" arrival="72.50" arrivalLane="B1B0_0" arrivalPos="85.60" arrivalSpeed="13.15" duration="40.50" routeLength="274.56" waitingTime="3.10" waitingCount="1" stopTime="0.00" timeLoss="17.84" rerouteNo="0" devices="tripinfo_passenger16" vType="passenger" speedFactor="0.95" vaporized=""/>
    <tripinfo id="emergency1" depart="30.00" departLane="D1D0_0" departPos="6.60" departSpeed="0.00" departDelay="0.00" arrival="74.50" arrivalLane="A0A1_0" arrivalPos="93.60" arrivalSpeed="13.80" duration="44.50" routeLength="479.36" waitingTime="0.00" waitingCount="0" stopTime="0.00" timeLoss="8.99" rerouteNo="0" devices="tripinfo_emergency1" vType="emergency" speedFactor="1.00" vaporized=""/>
    <tripinfo id="passenger25" depart="50.00" departLane="C0D0_0" departPos="5.10" departSpeed="0.00" departDelay="0.00" arrival="78.50" arrivalLane="C0C1_0" arrivalPos="85.60" arrivalSpeed="14.41" duration="28.50" routeLength="273.40" waitingTime="0.00" waitingCount="0" stopTime="0.00" timeLoss="8.05" rerouteNo="0" devices="tripinfo_passenger25" vType="passenger" speedFactor="1.05" vaporized=""/>
    <tripinfo id="passenger29" depart="58.00" departLane="C1C0_0" departPos="5.10" departSpeed="0.00" departDelay="0.00" arrival="78.80" arrivalLane="C0D0_0" arrivalPos="89.60" arrivalSpeed="11.49" duration="20.80" routeLength="184.29" waitingTime="0.00" waitingCount="0" stopTime="0.00" timeLoss="3.92" rerouteNo="0" devices="tripinfo_passenger29" vType="passenger" speedFactor="0.83" vaporized=""/>
    <tripinfo id="emergency2" depart="60.20" departLane="A0A1_0" departPos="6.60" departSpeed="0.00" departDelay="0.20" arrival="80.70" arrivalLane="A1A0_0" arrivalPos="93.60" arrivalSpeed="13.85" duration="20.50" routeLength="185.27" waitingTime="0.00" waitingCount="0" stopTime="0.00" timeLoss="6.16" rerouteNo="0" devices="tripinfo_emergency2" vType="emergency" speedFactor="1.00" vaporized=""/>
    <tripinfo id="passenger20" depart="41.40" departLane="C1B1_0" departPos="5.10" departSpeed="0.00" departDelay="1.40" arrival="80.90" arrivalLane="A0A1_0" arrivalPos="93.60" arrivalSpeed="13.61" duration="39.50" routeLength="375.10" waitingTime="0.00" waitingCount="0" stopTime="0.00" timeLoss="10.01" rerouteNo="0" devices="tripinfo_passenger20" vType="passenger" speedFactor="0.98" vaporized=""/>
    <tripinfo id="passenger21" depart="42.00" departLane="C1D1_0" departPos="5.10" departSpeed="0.00" departDelay="0.00" arrival="84.30" arrivalLane="A1A0_0" arrivalPos="93.60" arrivalSpeed="14.99" duration="42.30" routeLength="484.11" waitingTime="0.00" waitingCount="0" stopTime="0.00" timeLoss="8.59" rerouteNo="0" devices="tripinfo_passenger21" vType="passenger" speedFactor="1.08" vaporized=""/>
    <tripinfo id="passenger23" depart="52.90" departLane="A0A1_0" departPos="5.10" departSpeed="0.00" departDelay="6.90" arrival="86.30" arrivalLane="A0B0_0" arrivalPos="89.60" arrivalSpeed="10.93" duration="33.40" routeLength="284.11" waitingTime="0.90" waitingCount="1" stopTime="0.00" timeLoss="11.72" rerouteNo="0" devices="tripinfo_passenger23" vType="passenger" speedFactor="1.02" vaporized=""/>
    <tripinfo id="passenger18" depart="36.00" departLane="B0B1_0" departPos="5.10" departSpeed="0.00" departDelay="0.00" arrival="86.80" arrivalLane="C0B0_0" arrivalPos="85.60" arrivalSpeed="14.65" duration="50.80" routeLength="364.39" waitingTime="7.90" waitingCount="1" stopTime="0.00" timeLoss="23.73" rerouteNo="0" devices="tripinfo_passenger18" vType="passenger" speedFactor="1.05" vaporized=""/>
    <tripinfo id="passenger32" depart="64.00" departLane="D1D0_0" departPos="5.10" departSpeed="0.00" departDelay="0.00" arrival="93.60" arrivalLane="D1C1_0" arrivalPos="89.60" arrivalSpeed="14.25" duration="29.60" routeLength="284.11" waitingTime="0.00" waitingCount="0" stopTime="0.00" timeLoss="8.06" rerouteNo="0" devices="tripinfo_passenger32" vType="passenger" speedFactor="1.03" vaporized=""/>
    <tripinfo id="passenger30" depart="60.00" departLane="C0B0_0" departPos="5.10" departSpeed="0.00" departDelay="0.00" arrival="96.30" arrivalLane="C1C0_0" arrivalPos="85.60" arrivalSpeed="14.16" duration="36.30" routeLength="364.39" waitingTime="0.00" waitingCount="0" stopTime="0.00" timeLoss="8.60" rerouteNo="1" devices="tripinfo_passenger30" vType="passenger" speedFactor="1.03" vaporized=""/>
    <tripinfo id="passenger39" depart="87.50" departLane="B0B1_0" departPos="5.10" departSpeed="0.00" departDelay="9.50" arrival="97.80" arrivalLane="B0B1_0" arrivalPos="85.60" arrivalSpeed="11.68" duration="10.30" routeLength="80.50" waitingTime="0.00" waitingCount="0" stopTime="0.00" timeLoss="4.28" rerouteNo="0" devices="tripinfo_passenger39" vType="passenger" speedFactor="0.96" vaporized=""/>
    <tripinfo id="passenger31" depart="68.10" departLane="B1B0_0" departPos="5.10" departSpeed="0.00" departDelay="6.10" arrival="98.30" arrivalLane="A0B0_0" arrivalPos="89.60" arrivalSpeed="13.02" duration="30.20" routeLength="273.40" waitingTime="0.00" waitingCount="0" stopTime="0.00" timeLoss="7.42" rerouteNo="0" devices="tripinfo_passenger31" vType="passenger" speedFactor="0.94" vaporized=""/>
    <tripinfo id="passenger33" depart="66.00" departLane="C0B0_0" departPos="5.10" departSpeed="0.00" departDelay="0.00" arrival="102.00" arrivalLane="C1C0_0" arrivalPos="85.60" arrivalSpeed="14.35" duration="36.00" routeLength="364.39" waitingTime="0.00" waitingCount="0" stopTime="0.00" timeLoss="8.47" rerouteNo="1" devices="tripinfo_passenger33" vType="passenger" speedFactor="1.03" vaporized=""/>
    <tripinfo id="passenger27" depart="56.20" departLane="A1A0_0" departPos="5.10" departSpeed="0.00" departDelay="2.20" arrival="103.30" arrivalLane="B1C1_0" arrivalPos="85.60" arrivalSpeed="11.29" duration="47.10" routeLength="380.26" waitingTime="2.00" waitingCount="1" stopTime="0.00" timeLoss="10.79" rerouteNo="1" devices="tripinfo_passenger27" vType="passenger" speedFactor="0.81" vaporized=""/>
    <tripinfo id="passenger34" depart="69.40" departLane="C1D1_0" departPos="5.10" departSpeed="0.00" departDelay="1.40" arrival="107.50" arrivalLane="B1C1_0" arrivalPos="85.60" arrivalSpeed="11.98" duration="38.10" routeLength="369.05" waitingTime="0.00" waitingCount="0" stopTime="0.00" timeLoss="10.38" rerouteNo="0" devices="tripinfo_passenger34" vType="passenger" speedFactor="1.03" vaporized=""/>
    <tripinfo id="passenger46" depart="92.00" departLane="D0D1_0" departPos="5.10" departSpeed="0.00" departDelay="0.00" arrival="113.90" arrivalLane="D1D0_0" arrivalPos="93.60" arrivalSpeed="12.29" duration="21.90" routeLength="186.77" waitingTime="0.00" waitingCount="0" stopTime="0.00" timeLoss="5.67" rerouteNo="0" devices="tripinfo_passenger46" vType="passenger" speedFactor="0.89" vaporized=""/>
    <tripinfo id="passenger45" depart="94.50" departLane="A0B0_0" departPos="5.10" departSpeed="0.00" departDelay="4.50" arrival="114.10" arrivalLane="B0B1_0" arrivalPos="85.60" arrivalSpeed="12.48" duration="19.60" routeLength="184.29" waitingTime="0.00" waitingCount="0" stopTime="0.00" timeLoss="6.42" rerouteNo="0" devices="tripinfo_passenger45" vType="passenger" speedFactor="1.07" vaporized=""/>
    <tripinfo id="passenger35" depart="70.30" departLane="C0B0_0" departPos="5.10" departSpeed="0.00" departDelay="0.30" arrival="118.10" arrivalLane="D1C1_0" arrivalPos="89.60" arrivalSpeed="12.85" duration="47.80" routeLength="468.03" waitingTime="0.00" waitingCount="0" stopTime="0.00" timeLoss="8.91" rerouteNo="1" devices="tripinfo_passenger35" vType="passenger" speedFactor="0.93" vaporized=""/>
    <tripinfo id="passenger43" depart="91.80" departLane="A0B0_0" departPos="5.10" departSpeed="0.00" departDelay="5.80" arrival="121.60" arrivalLane="B1A1_0" arrivalPos="89.60" arrivalSpeed="12.56" duration="29.80" routeLength="288.08" waitingTime="0.00" waitingCount="0" stopTime="0.00" timeLoss="5.22" rerouteNo="0" devices="tripinfo_passenger43" vType="passenger" speedFactor="0.91" vaporized=""/>
    <tripinfo id="passenger49" depart="98.00" departLane="B1A1_0" departPos="5.10" departSpeed="0.00" departDelay="0.00" arrival="124.00" arrivalLane="B1C1_0" arrivalPos="85.60" arrivalSpeed="15.91" duration="26.00" routeLength="278.77" waitingTime="0.00" waitingCount="0" stopTime="0.00" timeLoss="7.75" rerouteNo="0" devices="tripinfo_passenger49" vType="passenger" speedFactor="1.15" vaporized=""/>
    <tripinfo id="passenger41" depart="84.70" departLane="B1B0_0" departPos="5.10" departSpeed="0.00" departDelay="2.70" arrival="125.00" arrivalLane="C1C0_0" arrivalPos="85.60" arrivalSpeed="12.66" duration="40.30" routeLength="360.03" waitingTime="0.00" waitingCount="0" stopTime="0.00" timeLoss="9.30" rerouteNo="1" devices="tripinfo_passenger41" vType="passenger" speedFactor="0.92" vaporized=""/>
    <tripinfo id="passenger38" depart="87.70" departLane="D1C1_0" departPos="5.10" departSpeed="0.00" departDelay="11.70" arrival="126.50" arrivalLane="C0D0_0" arrivalPos="89.60" arrivalSpeed="15.91" duration="38.80" routeLength="288.08" waitingTime="8.10" waitingCount="2" stopTime="0.00" timeLoss="19.30" rerouteNo="0" devices="tripinfo_passenger38" vType="passenger" speedFactor="1.15" vaporized=""/>
    <tripinfo id="passenger47" depart="94.00" departLane="B1A1_0" departPos="5.10" departSpeed="0.00" departDelay="0.00" arrival="131.40" arrivalLane="B1B0_0" arrivalPos="85.60" arrivalSpeed="7.02" duration="37.40" routeLength="273.40" waitingTime="0.00" waitingCount="0" stopTime="0.00" timeLoss="16.54" rerouteNo="0" devices="tripinfo_passenger47" vType="passenger" speedFactor="1.03" vaporized=""/>
    <tripinfo id="passenger36" depart="72.00" departLane="A0B0_0" departPos="5.10" departSpeed="0.00" departDelay="0.00" arrival="132.70" arrivalLane="D0D1_0" arrivalPos="93.60" arrivalSpeed="14.15" duration="60.70" routeLength="578.68" waitingTime="0.00" waitingCount="0" stopTime="0.00" timeLoss="16.30" rerouteNo="1" devices="tripinfo_passenger36" vType="passenger" speedFactor="1.02" vaporized=""/>
    <tripinfo id="passenger40" depart="80.00" departLane="B1A1_0" departPos="5.10" departSpeed="0.00" departDelay="0.00" arrival="134.60" arrivalLane="D1D0_0" arrivalPos="93.60" arrivalSpeed="11.02" duration="54.60" routeLength="478.95" waitingTime="0.00" waitingCount="0" stopTime="0.00" timeLoss="9.65" rerouteNo="0" devices="tripinfo_passenger40" vType="passenger" speedFactor="0.80" vaporized=""/>
    <tripinfo id="passenger53" depart="108.90" departLane="B1C1_0" departPos="5.10" departSpeed="0.00" departDelay="2.90" arrival="136.70" arrivalLane="B1A1_0" arrivalPos="89.60" arrivalSpeed="13.32" duration="27.80" routeLength="274.78" waitingTime="0.00" waitingCount="0" stopTime="0.00" timeLoss="6.33" rerouteNo="0" devices="tripinfo_passenger53" vType="passenger" speedFactor="0.97" vaporized=""/>
    <tripinfo id="passenger48" depart="107.90" departLane="B0B1_0" departPos="5.10" departSpeed="0.00" departDelay="11.90" arrival="138.80" arrivalLane="C1C0_0" arrivalPos="85.60" arrivalSpeed="13.11" duration="30.90" routeLength="269.76" waitingTime="0.20" waitingCount="1" stopTime="0.00" timeLoss="8.79" rerouteNo="0" devices="tripinfo_passenger48" vType="passenger" speedFactor="0.95" vaporized=""/>
    <tripinfo id="passenger55" depart="118.00" departLane="A1B1_0" departPos="5.10" departSpeed="0.00" departDelay="8.00" arrival="146.10" arrivalLane="C1C0_0" arrivalPos="85.60" arrivalSpeed="12.10" duration="28.10" routeLength="279.13" waitingTime="0.00" waitingCount="0" stopTime="0.00" timeLoss="4.21" rerouteNo="0" devices="tripinfo_passenger55" vType="passenger" speedFactor="0.87" vaporized=""/>
    <tripinfo id="passenger37" depart="74.00" departLane="D1C1_0" departPos="5.10" departSpeed="0.00" departDelay="0.00" arrival="150.30" arrivalLane="A0B0_0" arrivalPos="89.60" arrivalSpeed="12.41" duration="76.30" routeLength="477.19" waitingTime="20.10" waitingCount="1" stopTime="0.00" timeLoss="35.18" rerouteNo="0" devices="tripinfo_passenger37" vType="passenger" speedFactor="0.89" vaporized=""/>
    <tripinfo id="passenger64" depart="130.90" departLane="B1A1_0" departPos="5.10" departSpeed="0.00" departDelay="2.90" arrival="150.80" arrivalLane="A1A0_0" arrivalPos="93.60" arrivalSpeed="12.88" duration="19.90" routeLength="185.84" waitingTime="0.00" waitingCount="0" stopTime="0.00" timeLoss="4.74" rerouteNo="0" devices="tripinfo_passenger64" vType="passenger" speedFactor="0.93" vaporized=""/>
    <tripinfo id="passenger52" depart="104.00" departLane="B1A1_0" departPos="5.10" departSpeed="0.00" departDelay="0.00" arrival="151.40" arrivalLane="D1C1_0" arrivalPos="89.60" arrivalSpeed="13.00" duration="47.40" routeLength="477.04" waitingTime="0.00" waitingCount="0" stopTime="0.00" timeLoss="9.07" rerouteNo="0" devices="tripinfo_passenger52" vType="passenger" speedFactor="0.95" vaporized=""/>
    <tripinfo id="passenger50" depart="100.80" departLane="B1C1_0" departPos="5.10" departSpeed="0.00" departDelay="0.80" arrival="152.20" arrivalLane="A0A1_0" arrivalPos="93.60" arrivalSpeed="14.84" duration="51.40" routeLength="465.38" waitingTime="0.00" waitingCount="0" stopTime="0.00" timeLoss="17.57" rerouteNo="0" devices="tripinfo_passenger50" vType="passenger" speedFactor="1.08" vaporized=""/>
    <tripinfo id="passenger60" depart="120.00" departLane="C1D1_0" departPos="5.10" departSpeed="0.00" departDelay="0.00" arrival="160.00" arrivalLane="B1A1_0" arrivalPos="89.60" arrivalSpeed="11.29" duration="40.00" routeLength="382.77" waitingTime="0.00" waitingCount="0" stopTime="0.00" timeLoss="5.17" rerouteNo="0" devices="tripinfo_passenger60" vType="passenger" speedFactor="0.82" vaporized=""/>
    <tripinfo id="passenger42" depart="84.90" departLane="D1D0_0" departPos="5.10" departSpeed="0.00" departDelay="0.90" arrival="163.30" arrivalLane="B1A1_0" arrivalPos="89.60" arrivalSpeed="14.35" duration="78.40" routeLength="479.10" waitingTime="29.20" waitingCount="2" stopTime="0.00" timeLoss="43.10" rerouteNo="0" devices="tripinfo_passenger42" vType="passenger" speedFactor="1.03" vaporized=""/>
    <tripinfo id="passenger67" depart="134.00" departLane="B1A1_0" departPos="5.10" departSpeed="0.00" departDelay="0.00" arrival="164.30" arrivalLane="B1B0_0" arrivalPos="85.60" arrivalSpeed="8.48" duration="30.30" routeLength="273.40" waitingTime="0.00" waitingCount="0" stopTime="0.00" timeLoss="11.75" rerouteNo="0" devices="tripinfo_passenger67" vType="passenger" speedFactor="1.15" vaporized=""/>
    <tripinfo id="passenger61" depart="122.00" departLane="B1A1_0" departPos="5.10" departSpeed="0.00" departDelay="0.00" arrival="164.80" arrivalLane="D1D0_0" arrivalPos="93.60" arrivalSpeed="15.29" duration="42.80" routeLength="478.95" waitingTime="0.00" waitingCount="0" stopTime="0.00" timeLoss="10.17" rerouteNo="0" devices="tripinfo_passenger61" vType="passenger" speedFactor="1.10" vaporized=""/>
    <tripinfo id="passenger54" depart="108.00" departLane="C0B0_0" departPos="5.10" departSpeed="0.00" departDelay="0.00" arrival="166.20" arrivalLane="B1B0_0" arrivalPos="85.60" arrivalSpeed="12.74" duration="58.20" routeLength="265.40" waitingTime="21.50" waitingCount="1" stopTime="0.00" timeLoss="35.65" rerouteNo="0" devices="tripinfo_passenger54" vType="passenger" speedFactor="0.92" vaporized=""/>
    <tripinfo id="passenger51" depart="104.30" departLane="A1A0_0" departPos="5.10" departSpeed="0.00" departDelay="2.30" arrival="167.00" arrivalLane="B1C1_0" arrivalPos="85.60" arrivalSpeed="14.61" duration="62.70" routeLength="380.26" waitingTime="17.20" waitingCount="1" stopTime="0.00" timeLoss="34.73" rerouteNo="1" devices="tripinfo_passenger51" vType="passenger" speedFactor="1.06" vaporized=""/>
    <tripinfo id="passenger56" depart="121.60" departLane="A1B1_0" departPos="5.10" departSpeed="0.00" departDelay="9.60" arrival="167.30" arrivalLane="D0D1_0" arrivalPos="93.60" arrivalSpeed="14.75" duration="45.70" routeLength="482.95" waitingTime="0.00" waitingCount="0" stopTime="0.00" timeLoss="11.74" rerouteNo="0" devices="tripinfo_passenger56" vType="passenger" speedFactor="1.07" vaporized=""/>
    <tripinfo id="passenger59" depart="118.00" departLane="A0A1_0" departPos="5.10" departSpeed="0.00" departDelay="0.00" arrival="169.20" arrivalLane="B0B1_0" arrivalPos="85.60" arrivalSpeed="8.63" duration="51.20" routeLength="365.58" waitingTime="2.00" waitingCount="1" stopTime="0.00" timeLoss="23.59" rerouteNo="0" devices="tripinfo_passenger59" vType="passenger" speedFactor="1.03" vaporized=""/>
    <tripinfo id="passenger63" depart="126.00" departLane="C1C0_0" departPos="5.10" departSpeed="0.00" departDelay="0.00" arrival="176.00" arrivalLane="B1C1_0" arrivalPos="85.60" arrivalSpeed="9.22" duration="50.00" routeLength="364.39" waitingTime="0.00" waitingCount="0" stopTime="0.00" timeLoss="23.73" rerouteNo="0" devices="tripinfo_passenger63" vType="passenger" speedFactor="1.08" vaporized=""/>
    <tripinfo id="passenger58" depart="116.00" departLane="D1C1_0" departPos="5.10" departSpeed="0.00" departDelay="0.00" arrival="176.00" arrivalLane="A0A1_0" arrivalPos="93.60" arrivalSpeed="12.88" duration="60.00" routeLength="479.10" waitingTime="7.20" waitingCount="1" stopTime="0.00" timeLoss="20.63" rerouteNo="0" devices="tripinfo_passenger58" vType="passenger" speedFactor="0.93" vaporized=""/>
    <tripinfo id="passenger72" depart="144.00" departLane="C0D0_0" departPos="5.10" departSpeed="0.00" departDelay="0.00" arrival="176.80" arrivalLane="B0A0_0" arrivalPos="89.60" arrivalSpeed="15.34" duration="32.80" routeLength="382.77" waitingTime="0.00" waitingCount="0" stopTime="0.00" timeLoss="7.02" rerouteNo="0" devices="tripinfo_passenger72" vType="passenger" speedFactor="1.11" vaporized=""/>
    <tripinfo id="passenger65" depart="132.70" departLane="D1D0_0" departPos="5.10" departSpeed="0.00" departDelay="2.70" arrival="178.40" arrivalLane="A0A1_0" arrivalPos="93.60" arrivalSpeed="14.33" duration="45.70" routeLength="480.86" waitingTime="0.00" waitingCount="0" stopTime="0.00" timeLoss="11.38" rerouteNo="0" devices="tripinfo_passenger65" vType="passenger" speedFactor="1.04" vaporized=""/>
    <tripinfo id="emergency5" depart="150.70" departLane="D1C1_0" departPos="6.60" departSpeed="0.00" departDelay="0.70" arrival="179.70" arrivalLane="B1B0_0" arrivalPos="85.60" arrivalSpeed="8.01" duration="29.00" routeLength="282.79" waitingTime="0.00" waitingCount="0" stopTime="0.00" timeLoss="7.84" rerouteNo="0" devices="tripinfo_emergency5" vType="emergency" speedFactor="1.00" vaporized=""/>
    <tripinfo id="passenger71" depart="142.00" departLane="B1B0_0" departPos="5.10" departSpeed="0.00" departDelay="0.00" arrival="181.30" arrivalLane="A1B1_0" arrivalPos="89.60" arrivalSpeed="14.79" duration="39.30" routeLength="367.49" waitingTime="0.00" waitingCount="0" stopTime="0.00" timeLoss="12.92" rerouteNo="0" devices="tripinfo_passenger71" vType="passenger" speedFactor="1.07" vaporized=""/>
    <tripinfo id="emergency4" depart="120.00" departLane="D1C1_0" departPos="6.60" departSpeed="0.00" departDelay="0.00" arrival="182.00" arrivalLane="A0A1_0" arrivalPos="93.60" arrivalSpeed="13.80" duration="62.00" routeLength="477.60" waitingTime="3.10" waitingCount="3" stopTime="0.00" timeLoss="25.65" rerouteNo="0" devices="tripinfo_emergency4" vType="emergency" speedFactor="1.00" vaporized=""/>
    <tripinfo id="passenger74" depart="148.00" departLane="B1C1_0" departPos="5.10" departSpeed="0.00" departDelay="0.00" arrival="185.60" arrivalLane="D0C0_0" arrivalPos="89.60" arrivalSpeed="13.18" duration="37.60" routeLength="372.86" waitingTime="0.00" waitingCount="0" stopTime="0.00" timeLoss="8.57" rerouteNo="0" devices="tripinfo_passenger74" vType="passenger" speedFactor="0.96" vaporized=""/>
    <tripinfo id="passenger70" depart="147.80" departLane="D1C1_0" departPos="5.10" departSpeed="0.00" departDelay="7.80" arrival="187.00" arrivalLane="B0B1_0" arrivalPos="85.60" arrivalSpeed="12.06" duration="39.20" routeLength="374.56" waitingTime="0.00" waitingCount="0" stopTime="0.00" timeLoss="6.45" rerouteNo="0" devices="tripinfo_passenger70" vType="passenger" speedFactor="0.88" vaporized=""/>
    <tripinfo id="passenger79" depart="162.20" departLane="C1B1_0" departPos="5.10" departSpeed="0.00" departDelay="4.20" arrival="192.30" arrivalLane="B0B1_0" arrivalPos="85.60" arrivalSpeed="13.13" duration="30.10" routeLength="270.56" waitingTime="0.00" waitingCount="0" stopTime="0.00" timeLoss="7.75" rerouteNo="0" devices="tripinfo_passenger79" vType="passenger" speedFactor="0.95" vaporized=""/>
    <tripinfo id="passenger44" depart="90.00" departLane="B1B0_0" departPos="5.10" departSpeed="0.00" departDelay="2.00" arrival="193.40" arrivalLane="C0D0_0" arrivalPos="89.60" arrivalSpeed="11.44" duration="103.40" routeLength="463.82" waitingTime="38.50" waitingCount="2" stopTime="0.00" timeLoss="59.38" rerouteNo="1" devices="tripinfo_passenger44" vType="passenger" speedFactor="0.83" vaporized=""/>
    <tripinfo id="passenger77" depart="154.00" departLane="C1C0_0" departPos="5.10" departSpeed="0.00" departDelay="0.00" arrival="194.40" arrivalLane="A0B0_0" arrivalPos="89.60" arrivalSpeed="11.97" duration="40.40" routeLength="373.40" waitingTime="0.00" waitingCount="0" stopTime="0.00" timeLoss="7.47" rerouteNo="0" devices="tripinfo_passenger77" vType="passenger" speedFactor="0.87" vaporized=""/>
    <tripinfo id="passenger57" depart="114.00" departLane="B0A0_0" departPos="5.10" departSpeed="0.00" departDelay="0.00" arrival="194.60" arrivalLane="C0B0_0" arrivalPos="85.60" arrivalSpeed="12.14" duration="80.60" routeLength="562.45" waitingTime="7.00" waitingCount="1" stopTime="0.00" timeLoss="30.20" rerouteNo="1" devices="tripinfo_passenger57" vType="passenger" speedFactor="0.88" vaporized=""/>
    <tripinfo id="passenger78" depart="160.20" departLane="D0C0_0" departPos="5.10" departSpeed="0.00" departDelay="4.20" arrival="194.60" arrivalLane="C1B1_0" arrivalPos="85.60" arrivalSpeed="12.84" duration="34.40" routeLength="278.92" waitingTime="2.00" waitingCount="1" stopTime="0.00" timeLoss="11.11" rerouteNo="0" devices="tripinfo_passenger78" vType="passenger" speedFactor="0.93" vaporized=""/>