<?xml version="1.0" encoding="UTF-8"?>

<!-- generated on Mon May  3 15:38:49 2021 by Eclipse SUMO Version 1.1.0
<configuration xmlns:xsi="http://www.w3.org/2001/XMLSchema-instance" xsi:noNamespaceSchemaLocation="http://sumo.dlr.de/xsd/sumoConfiguration.xsd">

    <input>
        <net-file value="contrib/ndn4ivc/traces/square-map/map.net.xml"/>
        <route-files value="contrib/ndn4ivc/traces/square-map/passenger_routes.rou.xml,contrib/ndn4ivc/traces/square-map/emergency_routes.rou.xml,contrib/ndn4ivc/traces/square-map/passenger_accident.xml"/>
    </input>

    <output>
        <emission-output value="contrib/ndn4ivc/traces/square-map/sumo-output.emission.xml"/>
        <tripinfo-output value="contrib/ndn4ivc/traces/square-map/sumo-output.tripinfo.xml"/>
    </output>

    <time>
        <begin value="0"/>
        <end value="3600"/>
        <step-length value="0.100000"/>
    </time>

    <report>
        <verbose value="true"/>
        <error-log value="contrib/ndn4ivc/traces/square-map/SumoError.log"/>
        <no-step-log value="true"/>
    </report>

    <traci_server>
        <remote-port value="3418"/>
    </traci_server>

    <random_number>
        <seed value="10"/>
    </random_number>

    <gui_only>
        <gui-settings-file value="contrib/ndn4ivc/traces/square-map/settings.xml"/>
        <quit-on-end value="true"/>
        <start value="true"/>
        <tracker-interval value="0.1"/>
    </gui_only>

</configuration>
-->

<tripinfos xmlns:xsi="http://www.w3.org/2001/XMLSchema-instance" xsi:noNamespaceSchemaLocation="http://sumo.dlr.de/xsd/tripinfo_file.xsd">
    <tripinfo id="passenger0" depart="0.00" departLane="C0D0_0" departPos="5.10" departSpeed="0.00" departDelay="0.00" arrival="25.90" arrivalLane="C0B0_0" arrivalPos="85.60" arrivalSpeed="15.24" duration="25.90" routeLength="278.77" waitingTime="0.00" waitingCount="0" stopTime="0.00" timeLoss="6.83" rerouteNo="0" devices="tripinfo_passenger0" vType="passenger" speedFactor="1.10" vaporized=""/>
    <tripinfo id="passenger8" depart="27.80" departLane="A1B1_0" departPos="5.10" departSpeed="0.00" departDelay="11.80" arrival="37.30" arrivalLane="A1B1_0" arrivalPos="89.60" arrivalSpeed="13.91" duration="9.50" routeLength="84.50" waitingTime="0.00" waitingCount="0" stopTime="0.00" timeLoss="3.38" rerouteNo="0" devices="tripinfo_passenger8" vType="passenger" speedFactor="1.00" vaporized=""/>
    <tripinfo id="passenger10" depart="21.10" departLane="C0B0_0" departPos="5.10" departSpeed="0.00" departDelay="1.10" arrival="37.80" arrivalLane="B0A0_0" arrivalPos="89.60" arrivalSpeed="13.89" duration="16.70" routeLength="184.50" waitingTime="0.00" waitingCount="0" stopTime="0.00" timeLoss="3.50" rerouteNo="0" devices="tripinfo_passenger10" vType="passenger" speedFactor="1.01" vaporized=""/>
    <tripinfo id="passenger6" depart="12.00" departLane="C0C1_0" departPos="5.10" departSpeed="0.00" departDelay="0.00" arrival="39.40" arrivalLane="B1A1_0" arrivalPos="89.60" arrivalSpeed="12.77" duration="27.40" routeLength="284.29" waitingTime="0.00" waitingCount="0" stopTime="0.00" timeLoss="4.37" rerouteNo="0" devices="tripinfo_passenger6" vType="passenger" speedFactor="0.93" vaporized=""/>
    <tripinfo id="passenger17" depart="34.00" departLane="B1B0_0" departPos="5.10" departSpeed="0.00" departDelay="0.00" arrival="44.00" arrivalLane="B1B0_0" arrivalPos="85.60" arrivalSpeed="11.29" duration="10.00" routeLength="80.50" waitingTime="0.00" waitingCount="0" stopTime="0.00" timeLoss="2.84" rerouteNo="0" devices="tripinfo_passenger17" vType="passenger" speedFactor="0.82" vaporized=""/>
    <tripinfo id="passenger9" depart="18.00" departLane="D0D1_0" departPos="5.10" departSpeed="0.00" departDelay="0.00" arrival="47.80" arrivalLane="D0C0_0" arrivalPos="89.60" arrivalSpeed="14.63" duration="29.80" routeLength="278.95" waitingTime="0.00" waitingCount="0" stopTime="0.00" timeLoss="9.37" rerouteNo="0" devices="tripinfo_passenger9" vType="passenger" speedFactor="1.05" vaporized=""/>
    <tripinfo id="passenger3" depart="6.00" departLane="B1A1_0" departPos="5.10" departSpeed="0.00" departDelay="0.00" arrival="52.10" arrivalLane="C0D0_0" arrivalPos="89.60" arrivalSpeed="13.71" duration="46.10" routeLength="477.19" waitingTime="0.00" waitingCount="0" stopTime="0.00" timeLoss="9.04" rerouteNo="0" devices="tripinfo_passenger3" vType="passenger" speedFactor="1.00" vaporized=""/>
    <tripinfo id="emergency1" depart="37.40" departLane="B1C1_0" departPos="6.60" departSpeed="0.00" departDelay="7.40" arrival="54.00" arrivalLane="C1D1_0" arrivalPos="89.60" arrivalSpeed="13.83" duration="16.60" routeLength="183.00" waitingTime="0.00" waitingCount="0" stopTime="0.00" timeLoss="3.42" rerouteNo="0" devices="tripinfo_emergency1" vType="emergency" speedFactor="1.00" vaporized=""/>
    <tripinfo id="passenger13" depart="26.60" departLane="C0D0_0" departPos="5.10" departSpeed="0.00" departDelay="0.60" arrival="61.40" arrivalLane="C0C1_0" arrivalPos="85.60" arrivalSpeed="14.95" duration="34.80" routeLength="273.40" waitingTime="0.00" waitingCount="0" stopTime="0.00" timeLoss="15.13" rerouteNo="0" devices="tripinfo_passenger13" vType="passenger" speedFactor="1.08" vaporized=""/>
    <tripinfo id="passenger14" depart="28.00" departLane="B0B1_0" departPos="5.10" departSpeed="0.00" departDelay="0.00" arrival="67.30" arrivalLane="A0B0_0" arrivalPos="89.60" arrivalSpeed="14.32" duration="39.30" routeLength="363.67" waitingTime="0.00" waitingCount="0" stopTime="0.00" timeLoss="11.61" rerouteNo="0" devices="tripinfo_passenger14" vType="passenger" speedFactor="1.04" vaporized=""/>
    <tripinfo id="passenger19" depart="38.00" departLane="C0C1_0" departPos="5.10" departSpeed="0.00" departDelay="0.00" arrival="67.70" arrivalLane="D1C1_0" arrivalPos="89.60" arrivalSpeed="13.46" duration="29.70" routeLength="273.40" waitingTime="0.00" waitingCount="0" stopTime="0.00" timeLoss="7.82" rerouteNo="0" devices="tripinfo_passenger19" vType="passenger" speedFactor="0.98" vaporized=""/>
    <tripinfo id="passenger4" depart="8.60" departLane="B1A1_0" departPos="5.10" departSpeed="0.00" departDelay="0.60" arrival="67.80" arrivalLane="C0B0_0" arrivalPos="85.60" arrivalSpeed="12.62" duration="59.20" routeLength="468.03" waitingTime="7.90" waitingCount="1" stopTime="0.00" timeLoss="19.54" rerouteNo="0" devices="tripinfo_passenger4" vType="passenger" speedFactor="0.91" vaporized=""/>
    <tripinfo id="passenger7" depart="14.00" departLane="B1A1_0" departPos="5.10" departSpeed="0.00" departDelay="0.00" arrival="69.00" arrivalLane="C0D0_0" arrivalPos="89.60" arrivalSpeed="15.48" duration="55.00" routeLength="477.19" waitingTime="3.10" waitingCount="1" stopTime="0.00" timeLoss="21.88" rerouteNo="0" devices="tripinfo_passenger7" vType="passenger" speedFactor="1.11" vaporized=""/>
    <tripinfo id="passenger24" depart="48.00" departLane="D1D0_0" departPos="5.10" departSpeed="0.00" departDelay="0.00" arrival="76.10" arrivalLane="C0C1_0" arrivalPos="85.60" arrivalSpeed="14.59" duration="28.10" routeLength="275.31" waitingTime="0.00" waitingCount="0" stopTime="0.00" timeLoss="8.15" rerouteNo="0" devices="tripinfo_passenger24" vType="passenger" speedFactor="1.05" vaporized=""/>
    <tripinfo id="passenger18" depart="36.00" departLane="C1D1_0" departPos="5.10" departSpeed="0.00" departDelay="0.00" arrival="79.50" arrivalLane="C0C1_0" arrivalPos="85.60" arrivalSpeed="14.59" duration="43.50" routeLength="368.83" waitingTime="2.70" waitingCount="1" stopTime="0.00" timeLoss="15.82" rerouteNo="0" devices="tripinfo_passenger18" vType="passenger" speedFactor="1.05" vaporized=""/>
    <tripinfo id="passenger23" depart="46.70" departLane="D0D1_0" departPos="5.10" departSpeed="0.00" departDelay="0.70" arrival="85.10" arrivalLane="C0B0_0" arrivalPos="85.60" arrivalSpeed="12.54" duration="38.40" routeLength="378.95" waitingTime="0.00" waitingCount="0" stopTime="0.00" timeLoss="10.24" rerouteNo="0" devices="tripinfo_passenger23" vType="passenger" speedFactor="1.02" vaporized=""/>
    <tripinfo id="passenger15" depart="32.30" departLane="B0A0_0" departPos="5.10" departSpeed="0.00" departDelay="2.30" arrival="85.80" arrivalLane="D1C1_0" arrivalPos="89.60" arrivalSpeed="15.45" duration="53.50" routeLength="571.46" waitingTime="0.00" waitingCount="0" stopTime="0.00" timeLoss="13.50" rerouteNo="1" devices="tripinfo_passenger15" vType="passenger" speedFactor="1.11" vaporized=""/>
    <tripinfo id="passenger12" depart="24.00" departLane="C0D0_0" departPos="5.10" departSpeed="0.00" departDelay="0.00" arrival="89.50" arrivalLane="A1A0_0" arrivalPos="93.60" arrivalSpeed="12.56" duration="65.50" routeLength="577.22" waitingTime="5.20" waitingCount="1" stopTime="0.00" timeLoss="17.04" rerouteNo="0" devices="tripinfo_passenger12" vType="passenger" speedFactor="0.91" vaporized=""/>
    <tripinfo id="passenger22" depart="44.00" departLane="D0D1_0" departPos="5.10" departSpeed="0.00" departDelay="0.00" arrival="90.30" arrivalLane="B1C1_0" arrivalPos="85.60" arrivalSpeed="13.87" duration="46.30" routeLength="376.12" waitingTime="3.00" waitingCount="1" stopTime="0.00" timeLoss="17.66" rerouteNo="0" devices="tripinfo_passenger22" vType="passenger" speedFactor="1.00" vaporized=""/>
    <tripinfo id="passenger31" depart="62.00" departLane="A1B1_0" departPos="5.10" departSpeed="0.00" departDelay="0.00" arrival="91.00" arrivalLane="B0A0_0" arrivalPos="89.60" arrivalSpeed="12.97" duration="29.00" routeLength="277.76" waitingTime="0.00" waitingCount="0" stopTime="0.00" timeLoss="6.21" rerouteNo="0" devices="tripinfo_passenger31" vType="passenger" speedFactor="0.94" vaporized=""/>
    <tripinfo id="passenger35" depart="72.50" departLane="B1C1_0" departPos="5.10" departSpeed="0.00" departDelay="2.50" arrival="91.40" arrivalLane="C1C0_0" arrivalPos="85.60" arrivalSpeed="12.87" duration="18.90" routeLength="175.13" waitingTime="0.00" waitingCount="0" stopTime="0.00" timeLoss="4.54" rerouteNo="0" devices="tripinfo_passenger35" vType="passenger" speedFactor="0.93" vaporized=""/>
    <tripinfo id="passenger26" depart="52.00" departLane="C1C0_0" departPos="5.10" departSpeed="0.00" departDelay="0.00" arrival="91.80" arrivalLane="D1D0_0" arrivalPos="93.60" arrivalSpeed="14.78" duration="39.80" routeLength="365.58" waitingTime="0.00" waitingCount="0" stopTime="0.00" timeLoss="12.98" rerouteNo="0" devices="tripinfo_passenger26" vType="passenger" speedFactor="1.07" vaporized=""/>
    <tripinfo id="passenger16" depart="32.00" departLane="C0D0_0" departPos="5.10" departSpeed="0.00" departDelay="0.00" arrival="92.50" arrivalLane="A1B1_0" arrivalPos="89.60" arrivalSpeed="13.10" duration="60.50" routeLength="571.13" waitingTime="0.00" waitingCount="0" stopTime="0.00" timeLoss="15.17" rerouteNo="0" devices="tripinfo_passenger16" vType="passenger" speedFactor="0.95" vaporized=""/>
    <tripinfo id="passenger20" depart="40.00" departLane="A1A0_0" departPos="5.10" departSpeed="0.00" departDelay="0.00" arrival="96.70" arrivalLane="C0B0_0" arrivalPos="85.60" arrivalSpeed="13.67" duration="56.70" routeLength="569.52" waitingTime="0.00" waitingCount="0" stopTime="0.00" timeLoss="11.33" rerouteNo="1" devices="tripinfo_passenger20" vType="passenger" speedFactor="0.98" vaporized=""/>
    <tripinfo id="passenger32" depart="64.00" departLane="C0B0_0" departPos="5.10" departSpeed="0.00" departDelay="0.00" arrival="101.00" arrivalLane="A1A0_0" arrivalPos="93.60" arrivalSpeed="14.23" duration="37.00" routeLength="378.95" waitingTime="0.00" waitingCount="0" stopTime="0.00" timeLoss="9.11" rerouteNo="0" devices="tripinfo_passenger32" vType="passenger" speedFactor="1.03" vaporized=""/>
    <tripinfo id="passenger28" depart="61.40" departLane="C1C0_0" departPos="5.10" departSpeed="0.00" departDelay="5.40" arrival="102.60" arrivalLane="B1B0_0" arrivalPos="85.60" arrivalSpeed="12.98" duration="41.20" routeLength="360.03" waitingTime="0.00" waitingCount="0" stopTime="0.00" timeLoss="10.81" rerouteNo="0" devices="tripinfo_passenger28" vType="passenger" speedFactor="0.93" vaporized=""/>
    <tripinfo id="passenger25" depart="61.20" departLane="A0B0_0" departPos="5.10" departSpeed="0.00" departDelay="11.20" arrival="103.70" arrivalLane="C1C0_0" arrivalPos="85.60" arrivalSpeed="14.42" duration="42.50" routeLength="373.55" waitingTime="1.60" waitingCount="1" stopTime="0.00" timeLoss="14.60" rerouteNo="1" devices="tripinfo_passenger25" vType="passenger" speedFactor="1.05" vaporized=""/>
    <tripinfo id="emergency2" depart="61.30" departLane="D1D0_0" departPos="6.60" departSpeed="0.00" departDelay="1.30" arrival="106.60" arrivalLane="A0B0_0" arrivalPos="89.60" arrivalSpeed="13.80" duration="45.30" routeLength="477.45" waitingTime="0.00" waitingCount="0" stopTime="0.00" timeLoss="9.48" rerouteNo="0" devices="tripinfo_emergency2" vType="emergency" speedFactor="1.00" vaporized=""/>
    <tripinfo id="passenger21" depart="42.00" departLane="B0A0_0" departPos="5.10" departSpeed="0.00" departDelay="0.00" arrival="108.40" arrivalLane="C0D0_0" arrivalPos="89.60" arrivalSpeed="14.89" duration="66.40" routeLength="571.61" waitingTime="3.80" waitingCount="2" stopTime="0.00" timeLoss="24.67" rerouteNo="1" devices="tripinfo_passenger21" vType="passenger" speedFactor="1.08" vaporized=""/>
    <tripinfo id="passenger36" depart="75.20" departLane="D0C0_0" departPos="5.10" departSpeed="0.00" departDelay="3.20" arrival="113.90" arrivalLane="D1C1_0" arrivalPos="89.60" arrivalSpeed="14.13" duration="38.70" routeLength="377.46" waitingTime="0.00" waitingCount="0" stopTime="0.00" timeLoss="9.90" rerouteNo="0" devices="tripinfo_passenger36" vType="passenger" speedFactor="1.02" vaporized=""/>
    <tripinfo id="passenger42" depart="86.10" departLane="A1B1_0" departPos="5.10" departSpeed="0.00" departDelay="2.10" arrival="115.40" arrivalLane="A1A0_0" arrivalPos="93.60" arrivalSpeed="14.24" duration="29.30" routeLength="280.12" waitingTime="0.00" waitingCount="0" stopTime="0.00" timeLoss="8.23" rerouteNo="0" devices="tripinfo_passenger42" vType="passenger" speedFactor="1.03" vaporized=""/>
    <tripinfo id="passenger27" depart="55.90" departLane="C1B1_0" departPos="5.10" departSpeed="0.00" departDelay="1.90" arrival="120.10" arrivalLane="D0C0_0" arrivalPos="89.60" arrivalSpeed="11.19" duration="64.20" routeLength="463.14" waitingTime="10.30" waitingCount="1" stopTime="0.00" timeLoss="20.92" rerouteNo="0" devices="tripinfo_passenger27" vType="passenger" speedFactor="0.81" vaporized=""/>
    <tripinfo id="passenger30" depart="60.50" departLane="C0C1_0" departPos="5.10" departSpeed="0.00" departDelay="0.50" arrival="120.20" arrivalLane="C1C0_0" arrivalPos="85.60" arrivalSpeed="14.16" duration="59.70" routeLength="559.61" waitingTime="0.00" waitingCount="0" stopTime="0.00" timeLoss="16.58" rerouteNo="1" devices="tripinfo_passenger30" vType="passenger" speedFactor="1.03" vaporized=""/>
    <tripinfo id="passenger29" depart="58.50" departLane="D0D1_0" departPos="5.10" departSpeed="0.00" departDelay="0.50" arrival="120.60" arrivalLane="A0A1_0" arrivalPos="93.60" arrivalSpeed="11.49" duration="62.10" routeLength="579.13" waitingTime="0.00" waitingCount="0" stopTime="0.00" timeLoss="9.69" rerouteNo="0" devices="tripinfo_passenger29" vType="passenger" speedFactor="0.83" vaporized=""/>
    <tripinfo id="passenger45" depart="90.30" departLane="C1B1_0" departPos="5.10" departSpeed="0.00" departDelay="0.30" arrival="123.40" arrivalLane="B1C1_0" arrivalPos="85.60" arrivalSpeed="14.71" duration="33.10" routeLength="170.78" waitingTime="12.60" waitingCount="3" stopTime="0.00" timeLoss="20.70" rerouteNo="0" devices="tripinfo_passenger45" vType="passenger" speedFactor="1.07" vaporized=""/>
    <tripinfo id="passenger39" depart="84.20" departLane="B1C1_0" departPos="5.10" departSpeed="0.00" departDelay="6.20" arrival="123.70" arrivalLane="D0D1_0" arrivalPos="93.60" arrivalSpeed="13.31" duration="39.50" routeLength="378.95" waitingTime="0.00" waitingCount="0" stopTime="0.00" timeLoss="9.61" rerouteNo="0" devices="tripinfo_passenger39" vType="passenger" speedFactor="0.96" vaporized=""/>
    <tripinfo id="passenger46" depart="100.30" departLane="B0B1_0" departPos="5.10" departSpeed="0.00" departDelay="8.30" arrival="124.90" arrivalLane="B1B0_0" arrivalPos="85.60" arrivalSpeed="12.19" duration="24.60" routeLength="170.77" waitingTime="2.80" waitingCount="1" stopTime="0.00" timeLoss="9.58" rerouteNo="0" devices="tripinfo_passenger46" vType="passenger" speedFactor="0.89" vaporized=""/>
    <tripinfo id="passenger43" depart="86.00" departLane="A0B0_0" departPos="5.10" departSpeed="0.00" departDelay="0.00" arrival="126.40" arrivalLane="C1B1_0" arrivalPos="85.60" arrivalSpeed="12.47" duration="40.40" routeLength="369.20" waitingTime="0.00" waitingCount="0" stopTime="0.00" timeLoss="8.26" rerouteNo="1" devices="tripinfo_passenger43" vType="passenger" speedFactor="0.91" vaporized=""/>
    <tripinfo id="passenger41" depart="85.80" departLane="B0B1_0" departPos="5.10" departSpeed="0.00" departDelay="3.80" arrival="127.60" arrivalLane="A0B0_0" arrivalPos="89.60" arrivalSpeed="12.73" duration="41.80" routeLength="363.67" waitingTime="0.00" waitingCount="0" stopTime="0.00" timeLoss="10.37" rerouteNo="0" devices="tripinfo_passenger41" vType="passenger" speedFactor="0.92" vaporized=""/>
    <tripinfo id="passenger38" depart="77.30" departLane="C0C1_0" departPos="5.10" departSpeed="0.00" departDelay="1.30" arrival="128.60" arrivalLane="D1C1_0" arrivalPos="89.60" arrivalSpeed="15.79" duration="51.30" routeLength="273.40" waitingTime="18.20" waitingCount="2" stopTime="0.00" timeLoss="32.61" rerouteNo="0" devices="tripinfo_passenger38" vType="passenger" speedFactor="1.15" vaporized=""/>
    <tripinfo id="passenger34" depart="76.60" departLane="D1D0_0" departPos="5.10" departSpeed="0.00" departDelay="8.60" arrival="129.70" arrivalLane="B1C1_0" arrivalPos="85.60" arrivalSpeed="8.79" duration="53.10" routeLength="469.94" waitingTime="0.00" waitingCount="0" stopTime="0.00" timeLoss="18.21" rerouteNo="0" devices="tripinfo_passenger34" vType="passenger" speedFactor="1.03" vaporized=""/>
    <tripinfo id="passenger33" depart="68.20" departLane="A0B0_0" departPos="5.10" departSpeed="0.00" departDelay="2.20" arrival="131.20" arrivalLane="D0D1_0" arrivalPos="93.60" arrivalSpeed="14.35" duration="63.00" routeLength="578.68" waitingTime="3.10" waitingCount="1" stopTime="0.00" timeLoss="19.14" rerouteNo="1" devices="tripinfo_passenger33" vType="passenger" speedFactor="1.03" vaporized=""/>
    <tripinfo id="emergency4" depart="122.20" departLane="A1A0_0" departPos="6.60" departSpeed="0.00" departDelay="2.20" arrival="131.90" arrivalLane="A1A0_0" arrivalPos="93.60" arrivalSpeed="13.77" duration="9.70" routeLength="87.00" waitingTime="0.00" waitingCount="0" stopTime="0.00" timeLoss="3.43" rerouteNo="0" devices="tripinfo_emergency4" vType="emergency" speedFactor="1.00" vaporized=""/>
    <tripinfo id="passenger37" depart="74.00" departLane="D0D1_0" departPos="5.10" departSpeed="0.00" departDelay="0.00" arrival="133.70" arrivalLane="A0B0_0" arrivalPos="89.60" arrivalSpeed="12.30" duration="59.70" routeLength="577.22" waitingTime="0.00" waitingCount="0" stopTime="0.00" timeLoss="10.60" rerouteNo="0" devices="tripinfo_passenger37" vType="passenger" speedFactor="0.89" vaporized=""/>
    <tripinfo id="passenger53" depart="106.00" departLane="D0D1_0" departPos="5.10" departSpeed="0.00" departDelay="0.00" arrival="135.00" arrivalLane="C1C0_0" arrivalPos="85.60" arrivalSpeed="13.32" duration="29.00" routeLength="285.63" waitingTime="0.00" waitingCount="0" stopTime="0.00" timeLoss="6.13" rerouteNo="0" devices="tripinfo_passenger53" vType="passenger" speedFactor="0.97" vaporized=""/>
    <tripinfo id="emergency3" depart="90.00" departLane="D1D0_0" departPos="6.60" departSpeed="0.00" departDelay="0.00" arrival="135.40" arrivalLane="B1C1_0" arrivalPos="85.60" arrivalSpeed="13.84" duration="45.40" routeLength="468.44" waitingTime="0.00" waitingCount="0" stopTime="0.00" timeLoss="9.68" rerouteNo="0" devices="tripinfo_emergency3" vType="emergency" speedFactor="1.00" vaporized=""/>
    <tripinfo id="passenger47" depart="94.00" departLane="C0B0_0" departPos="5.10" departSpeed="0.00" departDelay="0.00" arrival="136.10" arrivalLane="C1B1_0" arrivalPos="85.60" arrivalSpeed="14.16" duration="42.10" routeLength="360.04" waitingTime="0.00" waitingCount="0" stopTime="0.00" timeLoss="14.48" rerouteNo="1" devices="tripinfo_passenger47" vType="passenger" speedFactor="1.03" vaporized=""/>
    <tripinfo id="passenger48" depart="100.80" departLane="D0D1_0" departPos="5.10" departSpeed="0.00" departDelay="4.80" arrival="138.30" arrivalLane="B1A1_0" arrivalPos="89.60" arrivalSpeed="10.99" duration="37.50" routeLength="389.84" waitingTime="0.00" waitingCount="0" stopTime="0.00" timeLoss="7.11" rerouteNo="0" devices="tripinfo_passenger48" vType="passenger" speedFactor="0.95" vaporized=""/>
    <tripinfo id="passenger54" depart="109.80" departLane="B1C1_0" departPos="5.10" departSpeed="0.00" departDelay="1.80" arrival="141.10" arrivalLane="C0C1_0" arrivalPos="85.60" arrivalSpeed="12.80" duration="31.30" routeLength="265.40" waitingTime="0.00" waitingCount="0" stopTime="0.00" timeLoss="8.71" rerouteNo="0" devices="tripinfo_passenger54" vType="passenger" speedFactor="0.92" vaporized=""/>
    <tripinfo id="passenger44" depart="95.60" departLane="B1C1_0" departPos="5.10" departSpeed="0.00" departDelay="7.60" arrival="141.50" arrivalLane="A1A0_0" arrivalPos="93.60" arrivalSpeed="11.49" duration="45.90" routeLength="376.12" waitingTime="0.00" waitingCount="0" stopTime="0.00" timeLoss="11.23" rerouteNo="0" devices="tripinfo_passenger44" vType="passenger" speedFactor="0.83" vaporized=""/>
    <tripinfo id="passenger55" depart="110.70" departLane="B1B0_0" departPos="5.10" departSpeed="0.00" departDelay="0.70" arrival="142.10" arrivalLane="A0B0_0" arrivalPos="89.60" arrivalSpeed="12.00" duration="31.40" routeLength="273.40" waitingTime="0.00" waitingCount="0" stopTime="0.00" timeLoss="6.86" rerouteNo="0" devices="tripinfo_passenger55" vType="passenger" speedFactor="0.87" vaporized=""/>
    <tripinfo id="passenger52" depart="106.00" departLane="C0D0_0" departPos="5.10" departSpeed="0.00" departDelay="2.00" arrival="142.70" arrivalLane="B0A0_0" arrivalPos="89.60" arrivalSpeed="12.05" duration="36.70" routeLength="382.77" waitingTime="0.00" waitingCount="0" stopTime="0.00" timeLoss="6.59" rerouteNo="0" devices="tripinfo_passenger52" vType="passenger" speedFactor="0.95" vaporized=""/>
    <tripinfo id="passenger40" depart="92.50" departLane="B1C1_0" departPos="5.10" departSpeed="0.00" departDelay="12.50" arrival="142.90" arrivalLane="B0B1_0" arrivalPos="85.60" arrivalSpeed="11.10" duration="50.40" routeLength="360.84" waitingTime="0.00" waitingCount="0" stopTime="0.00" timeLoss="14.63" rerouteNo="0" devices="tripinfo_passenger40" vType="passenger" speedFactor="0.80" vaporized=""/>
    <tripinfo id="passenger59" depart="118.00" departLane="C0B0_0" departPos="5.10" departSpeed="0.00" departDelay="0.00" arrival="144.70" arrivalLane="A0A1_0" arrivalPos="93.60" arrivalSpeed="14.31" duration="26.70" routeLength="280.68" waitingTime="0.00" waitingCount="0" stopTime="0.00" timeLoss="6.63" rerouteNo="0" devices="tripinfo_passenger59" vType="passenger" speedFactor="1.03" vaporized=""/>
    <tripinfo id="passenger57" depart="115.90" departLane="C1C0_0" departPos="5.10" departSpeed="0.00" departDelay="1.90" arrival="148.10" arrivalLane="B0B1_0" arrivalPos="85.60" arrivalSpeed="12.25" duration="32.20" routeLength="269.76" waitingTime="0.70" waitingCount="1" stopTime="0.00" timeLoss="8.53" rerouteNo="0" devices="tripinfo_passenger57" vType="passenger" speedFactor="0.88" vaporized=""/>
    <tripinfo id="passenger50" depart="100.00" departLane="C1B1_0" departPos="5.10" departSpeed="0.00" departDelay="0.00" arrival="149.10" arrivalLane="A0B0_0" arrivalPos="89.60" arrivalSpeed="14.90" duration="49.10" routeLength="373.19" waitingTime="0.70" waitingCount="1" stopTime="0.00" timeLoss="21.82" rerouteNo="0" devices="tripinfo_passenger50" vType="passenger" speedFactor="1.08" vaporized=""/>
    <tripinfo id="passenger51" depart="109.00" departLane="B0B1_0" departPos="5.10" departSpeed="0.00" departDelay="7.00" arrival="154.70" arrivalLane="A0B0_0" arrivalPos="89.60" arrivalSpeed="14.69" duration="45.70" routeLength="363.67" waitingTime="0.00" waitingCount="0" stopTime="0.00" timeLoss="18.53" rerouteNo="0" devices="tripinfo_passenger51" vType="passenger" speedFactor="1.06" vaporized=""/>
    <tripinfo id="passenger63" depart="126.40" departLane="B1A1_0" departPos="5.10" departSpeed="0.00" departDelay="0.40" arrival="155.20" arrivalLane="A0A1_0" arrivalPos="93.60" arrivalSpeed="15.07" duration="28.80" routeLength="284.11" waitingTime="0.00" waitingCount="0" stopTime="0.00" timeLoss="8.42" rerouteNo="0" devices="tripinfo_passenger63" vType="passenger" speedFactor="1.08" vaporized=""/>
    <tripinfo id="passenger56" depart="112.00" departLane="B1A1_0" departPos="5.10" departSpeed="0.00" departDelay="0.00" arrival="158.10" arrivalLane="D1D0_0" arrivalPos="93.60" arrivalSpeed="14.81" duration="46.10" routeLength="478.95" waitingTime="0.00" waitingCount="0" stopTime="0.00" timeLoss="12.40" rerouteNo="0" devices="tripinfo_passenger56" vType="passenger" speedFactor="1.07" vaporized=""/>
    <tripinfo id="passenger58" depart="123.70" departLane="D1C1_0" departPos="5.10" departSpeed="0.00" departDelay="7.70" arrival="163.10" arrivalLane="B0B1_0" arrivalPos="85.60" arrivalSpeed="12.83" duration="39.40" routeLength="374.56" waitingTime="0.00" waitingCount="0" stopTime="0.00" timeLoss="8.47" rerouteNo="0" devices="tripinfo_passenger58" vType="passenger" speedFactor="0.93" vaporized=""/>
    <tripinfo id="passenger68" depart="136.00" departLane="A0B0_0" departPos="5.10" departSpeed="0.00" departDelay="0.00" arrival="165.60" arrivalLane="B1C1_0" arrivalPos="85.60" arrivalSpeed="12.51" duration="29.60" routeLength="278.92" waitingTime="0.00" waitingCount="0" stopTime="0.00" timeLoss="5.62" rerouteNo="1" devices="tripinfo_passenger68" vType="passenger" speedFactor="0.90" vaporized=""/>
    <tripinfo id="passenger61" depart="126.30" departLane="D1C1_0" departPos="5.10" departSpeed="0.00" departDelay="4.30" arrival="165.70" arrivalLane="C0C1_0" arrivalPos="85.60" arrivalSpeed="15.22" duration="39.40" routeLength="274.56" waitingTime="2.40" waitingCount="1" stopTime="0.00" timeLoss="19.82" rerouteNo="0" devices="tripinfo_passenger61" vType="passenger" speedFactor="1.10" vaporized=""/>
    <tripinfo id="passenger64" depart="128.00" departLane="D0C0_0" departPos="5.10" departSpeed="0.00" departDelay="0.00" arrival="166.80" arrivalLane="C1C0_0" arrivalPos="85.60" arrivalSpeed="5.25" duration="38.80" routeLength="269.40" waitingTime="0.00" waitingCount="0" stopTime="0.00" timeLoss="16.21" rerouteNo="0" devices="tripinfo_passenger64" vType="passenger" speedFactor="0.93" vaporized=""/>
    <tripinfo id="passenger79" depart="158.00" departLane="A1A0_0" departPos="5.10" departSpeed="0.00" departDelay="0.00" arrival="167.80" arrivalLane="A1A0_0" arrivalPos="93.60" arrivalSpeed="13.10" duration="9.80" routeLength="88.50" waitingTime="0.00" waitingCount="0" stopTime="0.00" timeLoss="3.05" rerouteNo="0" devices="tripinfo_passenger79" vType="passenger" speedFactor="0.95" vaporized=""/>
    <tripinfo id="passenger62" depart="127.60" departLane="B0B1_0" departPos="5.10" departSpeed="0.00" departDelay="3.60" arrival="173.30" arrivalLane="C0C1_0" arrivalPos="85.60" arrivalSpeed="16.10" duration="45.70" routeLength="360.03" waitingTime="3.60" waitingCount="1" stopTime="0.00" timeLoss="21.30" rerouteNo="0" devices="tripinfo_passenger62" vType="passenger" speedFactor="1.16" vaporized=""/>
    <tripinfo id="passenger69" depart="142.90" departLane="B1C1_0" departPos="5.10" departSpeed="0.00" departDelay="4.90" arrival="174.00" arrivalLane="D1C1_0" arrivalPos="89.60" arrivalSpeed="11.13" duration="31.10" routeLength="278.77" waitingTime="0.00" waitingCount="0" stopTime="0.00" timeLoss="5.01" rerouteNo="0" devices="tripinfo_passenger69" vType="passenger" speedFactor="0.81" vaporized=""/>
    <tripinfo id="passenger74" depart="148.10" departLane="B1B0_0" departPos="5.10" departSpeed="0.00" departDelay="0.10" arrival="177.40" arrivalLane="B1C1_0" arrivalPos="85.60" arrivalSpeed="13.20" duration="29.30" routeLength="265.40" waitingTime="0.00" waitingCount="0" stopTime="0.00" timeLoss="7.56" rerouteNo="1" devices="tripinfo_passenger74" vType="passenger" speedFactor="0.96" vaporized=""/>
    <tripinfo id="passenger71" depart="142.00" departLane="D1D0_0" departPos="5.10" departSpeed="0.00" departDelay="0.00" arrival="178.70" arrivalLane="C1B1_0" arrivalPos="85.60" arrivalSpeed="14.73" duration="36.70" routeLength="375.10" waitingTime="0.00" waitingCount="0" stopTime="0.00" timeLoss="9.55" rerouteNo="0" devices="tripinfo_passenger71" vType="passenger" speedFactor="1.07" vaporized=""/>
    <tripinfo id="passenger76" depart="152.00" departLane="B1C1_0" departPos="5.10" departSpeed="0.00" departDelay="0.00" arrival="179.60" arrivalLane="D1C1_0" arrivalPos="89.60" arrivalSpeed="13.63" duration="27.60" routeLength="278.77" waitingTime="0.00" waitingCount="0" stopTime="0.00" timeLoss="6.28" rerouteNo="0" devices="tripinfo_passenger76" vType="passenger" speedFactor="0.99" vaporized=""/>
    <tripinfo id="passenger60" depart="128.50" departLane="B1B0_0" departPos="5.10" departSpeed="0.00" departDelay="8.50" arrival="181.00" arrivalLane="C1C0_0" arrivalPos="85.60" arrivalSpeed="11.31" duration="52.50" routeLength="360.03" waitingTime="9.00" waitingCount="1" stopTime="0.00" timeLoss="17.87" rerouteNo="1" devices="tripinfo_passenger60" vType="passenger" speedFactor="0.82" vaporized=""/>