<?xml version="1.0" encoding="UTF-8"?>

<!-- generated on Mon May  3 15:29:32 2021 by Eclipse SUMO Version 1.1.0
<configuration xmlns:xsi="http://www.w3.org/2001/XMLSchema-instance" xsi:noNamespaceSchemaLocation="http://sumo.dlr.de/xsd/sumoConfiguration.xsd">

    <input>
        <net-file value="contrib/ndn4ivc/traces/square-map/map.net.xml"/>
        <route-files value="contrib/ndn4ivc/traces/square-map/passenger_routes.rou.xml,contrib/ndn4ivc/traces/square-map/emergency_routes.rou.xml,contrib/ndn4ivc/traces/square-map/passenger_accident.xml"/>
    </input>

    <output>
        <emission-output value="contrib/ndn4ivc/traces/square-map/sumo-output.emission.xml"/>
        <tripinfo-output value="contrib/ndn4ivc/traces/square-map/sumo-output.tripinfo.xml"/>
    </output>

    <time>
        <begin value="0"/>
        <end value="3600"/>
        <step-length value="0.100000"/>
    </time>

    <report>
        <verbose value="true"/>
        <error-log value="contrib/ndn4ivc/traces/square-map/SumoError.log"/>
        <no-step-log value="true"/>
    </report>

    <traci_server>
        <remote-port value="3418"/>
    </traci_server>

    <random_number>
        <seed value="10"/>
    </random_number>

    <gui_only>
        <gui-settings-file value="contrib/ndn4ivc/traces/square-map/settings.xml"/>
        <quit-on-end value="true"/>
        <start value="true"/>
        <tracker-interval value="0.1"/>
    </gui_only>

</configuration>
-->

<tripinfos xmlns:xsi="http://www.w3.org/2001/XMLSchema-instance" xsi:noNamespaceSchemaLocation="http://sumo.dlr.de/xsd/tripinfo_file.xsd">
    <tripinfo id="passenger7" depart="14.00" departLane="A1B1_0" departPos="5.10" departSpeed="0.00" departDelay="0.00" arrival="29.80" arrivalLane="B1C1_0" arrivalPos="85.60" arrivalSpeed="15.47" duration="15.80" routeLength="184.50" waitingTime="0.00" waitingCount="0" stopTime="0.00" timeLoss="3.81" rerouteNo="0" devices="tripinfo_passenger7" vType="passenger" speedFactor="1.11" vaporized=""/>
    <tripinfo id="passenger2" depart="4.00" departLane="B1B0_0" departPos="5.10" departSpeed="0.00" departDelay="0.00" arrival="37.20" arrivalLane="B1C1_0" arrivalPos="85.60" arrivalSpeed="14.53" duration="33.20" routeLength="265.40" waitingTime="2.20" waitingCount="1" stopTime="0.00" timeLoss="13.38" rerouteNo="0" devices="tripinfo_passenger2" vType="passenger" speedFactor="1.05" vaporized=""/>
    <tripinfo id="passenger4" depart="8.00" departLane="A1B1_0" departPos="5.10" departSpeed="0.00" departDelay="0.00" arrival="37.80" arrivalLane="B0A0_0" arrivalPos="89.60" arrivalSpeed="12.51" duration="29.80" routeLength="277.76" waitingTime="0.00" waitingCount="0" stopTime="0.00" timeLoss="6.16" rerouteNo="0" devices="tripinfo_passenger4" vType="passenger" speedFactor="0.91" vaporized=""/>
    <tripinfo id="passenger14" depart="28.00" departLane="A0A1_0" departPos="5.10" departSpeed="0.00" departDelay="0.00" arrival="38.10" arrivalLane="A0A1_0" arrivalPos="93.60" arrivalSpeed="13.73" duration="10.10" routeLength="88.50" waitingTime="0.00" waitingCount="0" stopTime="0.00" timeLoss="3.98" rerouteNo="0" devices="tripinfo_passenger14" vType="passenger" speedFactor="1.04" vaporized=""/>
    <tripinfo id="passenger3" depart="6.00" departLane="D0C0_0" departPos="5.10" departSpeed="0.00" departDelay="0.00" arrival="45.90" arrivalLane="B1A1_0" arrivalPos="89.60" arrivalSpeed="7.43" duration="39.90" routeLength="382.92" waitingTime="0.00" waitingCount="0" stopTime="0.00" timeLoss="10.69" rerouteNo="0" devices="tripinfo_passenger3" vType="passenger" speedFactor="1.00" vaporized=""/>
    <tripinfo id="passenger5" depart="13.50" departLane="C1B1_0" departPos="5.10" departSpeed="0.00" departDelay="3.50" arrival="47.30" arrivalLane="C1D1_0" arrivalPos="89.60" arrivalSpeed="15.02" duration="33.80" routeLength="274.78" waitingTime="5.10" waitingCount="2" stopTime="0.00" timeLoss="14.76" rerouteNo="0" devices="tripinfo_passenger5" vType="passenger" speedFactor="1.09" vaporized=""/>
    <tripinfo id="passenger11" depart="22.60" departLane="D1C1_0" departPos="5.10" departSpeed="0.00" departDelay="0.60" arrival="47.80" arrivalLane="B1A1_0" arrivalPos="89.60" arrivalSpeed="13.24" duration="25.20" routeLength="288.50" waitingTime="0.00" waitingCount="0" stopTime="0.00" timeLoss="5.10" rerouteNo="0" devices="tripinfo_passenger11" vType="passenger" speedFactor="1.04" vaporized=""/>
    <tripinfo id="passenger10" depart="20.00" departLane="D1C1_0" departPos="5.10" departSpeed="0.00" departDelay="0.00" arrival="48.80" arrivalLane="C0C1_0" arrivalPos="85.60" arrivalSpeed="13.97" duration="28.80" routeLength="274.56" waitingTime="0.00" waitingCount="0" stopTime="0.00" timeLoss="7.45" rerouteNo="0" devices="tripinfo_passenger10" vType="passenger" speedFactor="1.01" vaporized=""/>
    <tripinfo id="emergency0" depart="0.00" departLane="C0D0_0" departPos="6.60" departSpeed="0.00" departDelay="0.00" arrival="50.00" arrivalLane="B1B0_0" arrivalPos="85.60" arrivalSpeed="13.83" duration="50.00" routeLength="462.17" waitingTime="1.00" waitingCount="1" stopTime="0.00" timeLoss="13.99" rerouteNo="0" devices="tripinfo_emergency0" vType="emergency" speedFactor="1.00" vaporized=""/>
    <tripinfo id="passenger8" depart="16.60" departLane="A1B1_0" departPos="5.10" departSpeed="0.00" departDelay="0.60" arrival="52.30" arrivalLane="C0D0_0" arrivalPos="89.60" arrivalSpeed="13.91" duration="35.70" routeLength="382.92" waitingTime="0.00" waitingCount="0" stopTime="0.00" timeLoss="6.73" rerouteNo="0" devices="tripinfo_passenger8" vType="passenger" speedFactor="1.00" vaporized=""/>
    <tripinfo id="passenger13" depart="26.20" departLane="B1A1_0" departPos="5.10" departSpeed="0.00" departDelay="0.20" arrival="53.60" arrivalLane="A0B0_0" arrivalPos="89.60" arrivalSpeed="15.04" duration="27.40" routeLength="283.18" waitingTime="0.00" waitingCount="0" stopTime="0.00" timeLoss="7.31" rerouteNo="0" devices="tripinfo_passenger13" vType="passenger" speedFactor="1.08" vaporized=""/>
    <tripinfo id="passenger20" depart="40.00" departLane="D0C0_0" departPos="5.10" departSpeed="0.00" departDelay="0.00" arrival="60.00" arrivalLane="C0D0_0" arrivalPos="89.60" arrivalSpeed="13.65" duration="20.00" routeLength="178.78" waitingTime="0.00" waitingCount="0" stopTime="0.00" timeLoss="5.90" rerouteNo="0" devices="tripinfo_passenger20" vType="passenger" speedFactor="0.98" vaporized=""/>
    <tripinfo id="passenger16" depart="32.60" departLane="B1A1_0" departPos="5.10" departSpeed="0.00" departDelay="0.60" arrival="60.60" arrivalLane="B1C1_0" arrivalPos="85.60" arrivalSpeed="13.14" duration="28.00" routeLength="278.77" waitingTime="0.00" waitingCount="0" stopTime="0.00" timeLoss="5.86" rerouteNo="0" devices="tripinfo_passenger16" vType="passenger" speedFactor="0.95" vaporized=""/>
    <tripinfo id="passenger9" depart="24.40" departLane="C0B0_0" departPos="5.10" departSpeed="0.00" departDelay="6.40" arrival="61.20" arrivalLane="C1C0_0" arrivalPos="85.60" arrivalSpeed="14.56" duration="36.80" routeLength="364.39" waitingTime="0.00" waitingCount="0" stopTime="0.00" timeLoss="9.79" rerouteNo="1" devices="tripinfo_passenger9" vType="passenger" speedFactor="1.05" vaporized=""/>
    <tripinfo id="passenger12" depart="24.00" departLane="A0A1_0" departPos="5.10" departSpeed="0.00" departDelay="0.00" arrival="64.50" arrivalLane="B0A0_0" arrivalPos="89.60" arrivalSpeed="12.54" duration="40.50" routeLength="373.94" waitingTime="0.00" waitingCount="0" stopTime="0.00" timeLoss="8.70" rerouteNo="0" devices="tripinfo_passenger12" vType="passenger" speedFactor="0.91" vaporized=""/>
    <tripinfo id="passenger1" depart="2.00" departLane="D1C1_0" departPos="5.10" departSpeed="0.00" departDelay="0.00" arrival="66.70" arrivalLane="C1C0_0" arrivalPos="85.60" arrivalSpeed="13.22" duration="64.70" routeLength="563.82" waitingTime="6.20" waitingCount="1" stopTime="0.00" timeLoss="19.04" rerouteNo="1" devices="tripinfo_passenger1" vType="passenger" speedFactor="0.96" vaporized=""/>
    <tripinfo id="passenger26" depart="53.00" departLane="B1B0_0" departPos="5.10" departSpeed="0.00" departDelay="1.00" arrival="72.20" arrivalLane="B0B1_0" arrivalPos="85.60" arrivalSpeed="14.70" duration="19.20" routeLength="170.77" waitingTime="0.00" waitingCount="0" stopTime="0.00" timeLoss="6.75" rerouteNo="0" devices="tripinfo_passenger26" vType="passenger" speedFactor="1.07" vaporized=""/>
    <tripinfo id="passenger25" depart="50.00" departLane="C1B1_0" departPos="5.10" departSpeed="0.00" departDelay="0.00" arrival="75.60" arrivalLane="A1A0_0" arrivalPos="93.60" arrivalSpeed="14.45" duration="25.60" routeLength="285.84" waitingTime="0.00" waitingCount="0" stopTime="0.00" timeLoss="5.22" rerouteNo="0" devices="tripinfo_passenger25" vType="passenger" speedFactor="1.05" vaporized=""/>
    <tripinfo id="passenger32" depart="64.40" departLane="C1C0_0" departPos="5.10" departSpeed="0.00" departDelay="0.40" arrival="83.60" arrivalLane="C0C1_0" arrivalPos="85.60" arrivalSpeed="14.31" duration="19.20" routeLength="170.77" waitingTime="0.00" waitingCount="0" stopTime="0.00" timeLoss="6.33" rerouteNo="0" devices="tripinfo_passenger32" vType="passenger" speedFactor="1.03" vaporized=""/>
    <tripinfo id="passenger30" depart="60.00" departLane="D0C0_0" departPos="5.10" departSpeed="0.00" departDelay="0.00" arrival="87.50" arrivalLane="C1B1_0" arrivalPos="85.60" arrivalSpeed="14.15" duration="27.50" routeLength="278.92" waitingTime="0.00" waitingCount="0" stopTime="0.00" timeLoss="6.41" rerouteNo="0" devices="tripinfo_passenger30" vType="passenger" speedFactor="1.03" vaporized=""/>
    <tripinfo id="passenger33" depart="69.50" departLane="A1A0_0" departPos="5.10" departSpeed="0.00" departDelay="3.50" arrival="88.40" arrivalLane="A0B0_0" arrivalPos="89.60" arrivalSpeed="14.31" duration="18.90" routeLength="185.84" waitingTime="0.00" waitingCount="0" stopTime="0.00" timeLoss="5.22" rerouteNo="0" devices="tripinfo_passenger33" vType="passenger" speedFactor="1.03" vaporized=""/>
    <tripinfo id="passenger22" depart="45.20" departLane="D0D1_0" departPos="5.10" departSpeed="0.00" departDelay="1.20" arrival="89.60" arrivalLane="A1B1_0" arrivalPos="89.60" arrivalSpeed="13.90" duration="44.40" routeLength="484.11" waitingTime="0.00" waitingCount="0" stopTime="0.00" timeLoss="7.86" rerouteNo="0" devices="tripinfo_passenger22" vType="passenger" speedFactor="1.00" vaporized=""/>
    <tripinfo id="emergency2" depart="63.10" departLane="B1C1_0" departPos="6.60" departSpeed="0.00" departDelay="3.10" arrival="91.50" arrivalLane="C0C1_0" arrivalPos="85.60" arrivalSpeed="13.80" duration="28.40" routeLength="263.90" waitingTime="0.00" waitingCount="0" stopTime="0.00" timeLoss="7.71" rerouteNo="0" devices="tripinfo_emergency2" vType="emergency" speedFactor="1.00" vaporized=""/>
    <tripinfo id="passenger35" depart="72.20" departLane="B1B0_0" departPos="5.10" departSpeed="0.00" departDelay="2.20" arrival="91.80" arrivalLane="B0A0_0" arrivalPos="89.60" arrivalSpeed="12.85" duration="19.60" routeLength="179.13" waitingTime="0.00" waitingCount="0" stopTime="0.00" timeLoss="4.86" rerouteNo="0" devices="tripinfo_passenger35" vType="passenger" speedFactor="0.93" vaporized=""/>
    <tripinfo id="passenger18" depart="38.80" departLane="A1A0_0" departPos="5.10" departSpeed="0.00" departDelay="2.80" arrival="92.80" arrivalLane="D1D0_0" arrivalPos="93.60" arrivalSpeed="14.58" duration="54.00" routeLength="579.13" waitingTime="0.00" waitingCount="0" stopTime="0.00" timeLoss="12.53" rerouteNo="0" devices="tripinfo_passenger18" vType="passenger" speedFactor="1.05" vaporized=""/>
    <tripinfo id="passenger19" depart="38.50" departLane="C0B0_0" departPos="5.10" departSpeed="0.00" departDelay="0.50" arrival="96.50" arrivalLane="D0D1_0" arrivalPos="93.60" arrivalSpeed="13.45" duration="58.00" routeLength="569.52" waitingTime="0.00" waitingCount="0" stopTime="0.00" timeLoss="12.28" rerouteNo="1" devices="tripinfo_passenger19" vType="passenger" speedFactor="0.98" vaporized=""/>
    <tripinfo id="passenger21" depart="42.00" departLane="A0A1_0" departPos="5.10" departSpeed="0.00" departDelay="0.00" arrival="96.60" arrivalLane="D0C0_0" arrivalPos="89.60" arrivalSpeed="14.92" duration="54.60" routeLength="573.04" waitingTime="0.00" waitingCount="0" stopTime="0.00" timeLoss="15.08" rerouteNo="0" devices="tripinfo_passenger21" vType="passenger" speedFactor="1.08" vaporized=""/>
    <tripinfo id="passenger17" depart="34.00" departLane="D1D0_0" departPos="5.10" departSpeed="0.00" departDelay="0.00" arrival="97.00" arrivalLane="A1A0_0" arrivalPos="93.60" arrivalSpeed="11.27" duration="63.00" routeLength="579.13" waitingTime="0.00" waitingCount="0" stopTime="0.00" timeLoss="9.69" rerouteNo="0" devices="tripinfo_passenger17" vType="passenger" speedFactor="0.82" vaporized=""/>
    <tripinfo id="passenger31" depart="62.00" departLane="D1C1_0" departPos="5.10" departSpeed="0.00" departDelay="0.00" arrival="98.40" arrivalLane="A1B1_0" arrivalPos="89.60" arrivalSpeed="12.97" duration="36.40" routeLength="382.77" waitingTime="0.00" waitingCount="0" stopTime="0.00" timeLoss="6.07" rerouteNo="0" devices="tripinfo_passenger31" vType="passenger" speedFactor="0.94" vaporized=""/>
    <tripinfo id="passenger23" depart="46.00" departLane="B0A0_0" departPos="5.10" departSpeed="0.00" departDelay="0.00" arrival="99.50" arrivalLane="C1B1_0" arrivalPos="85.60" arrivalSpeed="14.11" duration="53.50" routeLength="463.47" waitingTime="1.20" waitingCount="1" stopTime="0.00" timeLoss="17.31" rerouteNo="1" devices="tripinfo_passenger23" vType="passenger" speedFactor="1.02" vaporized=""/>
    <tripinfo id="passenger28" depart="57.90" departLane="C0B0_0" departPos="5.10" departSpeed="0.00" departDelay="1.90" arrival="107.30" arrivalLane="C0D0_0" arrivalPos="89.60" arrivalSpeed="12.97" duration="49.40" routeLength="468.18" waitingTime="0.00" waitingCount="0" stopTime="0.00" timeLoss="10.12" rerouteNo="1" devices="tripinfo_passenger28" vType="passenger" speedFactor="0.93" vaporized=""/>
    <tripinfo id="passenger24" depart="50.00" departLane="B0A0_0" departPos="5.10" departSpeed="0.00" departDelay="2.00" arrival="110.60" arrivalLane="C0D0_0" arrivalPos="89.60" arrivalSpeed="14.53" duration="60.60" routeLength="571.61" waitingTime="0.00" waitingCount="0" stopTime="0.00" timeLoss="17.78" rerouteNo="1" devices="tripinfo_passenger24" vType="passenger" speedFactor="1.05" vaporized=""/>
    <tripinfo id="passenger34" depart="75.70" departLane="C1C0_0" departPos="5.10" departSpeed="0.00" departDelay="7.70" arrival="115.20" arrivalLane="D1D0_0" arrivalPos="93.60" arrivalSpeed="14.19" duration="39.50" routeLength="365.58" waitingTime="0.00" waitingCount="0" stopTime="0.00" timeLoss="11.85" rerouteNo="0" devices="tripinfo_passenger34" vType="passenger" speedFactor="1.03" vaporized=""/>
    <tripinfo id="passenger37" depart="77.80" departLane="C0C1_0" departPos="5.10" departSpeed="0.00" departDelay="3.80" arrival="116.30" arrivalLane="A1A0_0" arrivalPos="93.60" arrivalSpeed="12.42" duration="38.50" routeLength="385.63" waitingTime="0.00" waitingCount="0" stopTime="0.00" timeLoss="5.80" rerouteNo="0" devices="tripinfo_passenger37" vType="passenger" speedFactor="0.89" vaporized=""/>
    <tripinfo id="passenger39" depart="81.30" departLane="B1A1_0" departPos="5.10" departSpeed="0.00" departDelay="3.30" arrival="117.70" arrivalLane="B1C1_0" arrivalPos="85.60" arrivalSpeed="6.87" duration="36.40" routeLength="278.77" waitingTime="0.00" waitingCount="0" stopTime="0.00" timeLoss="14.46" rerouteNo="0" devices="tripinfo_passenger39" vType="passenger" speedFactor="0.96" vaporized=""/>
    <tripinfo id="passenger40" depart="87.50" departLane="B1C1_0" departPos="5.10" departSpeed="0.00" departDelay="7.50" arrival="119.90" arrivalLane="B1B0_0" arrivalPos="85.60" arrivalSpeed="11.09" duration="32.40" routeLength="270.57" waitingTime="0.00" waitingCount="0" stopTime="0.00" timeLoss="5.87" rerouteNo="0" devices="tripinfo_passenger40" vType="passenger" speedFactor="0.80" vaporized=""/>
    <tripinfo id="passenger43" depart="87.50" departLane="B1B0_0" departPos="5.10" departSpeed="0.00" departDelay="1.50" arrival="120.90" arrivalLane="A0B0_0" arrivalPos="89.60" arrivalSpeed="12.55" duration="33.40" routeLength="273.40" waitingTime="0.00" waitingCount="0" stopTime="0.00" timeLoss="9.76" rerouteNo="0" devices="tripinfo_passenger43" vType="passenger" speedFactor="0.91" vaporized=""/>
    <tripinfo id="passenger50" depart="102.90" departLane="C1B1_0" departPos="5.10" departSpeed="0.00" departDelay="2.90" arrival="121.50" arrivalLane="B1B0_0" arrivalPos="85.60" arrivalSpeed="14.90" duration="18.60" routeLength="180.29" waitingTime="0.00" waitingCount="0" stopTime="0.00" timeLoss="5.82" rerouteNo="0" devices="tripinfo_passenger50" vType="passenger" speedFactor="1.08" vaporized=""/>
    <tripinfo id="passenger42" depart="84.00" departLane="C1C0_0" departPos="5.10" departSpeed="0.00" departDelay="0.00" arrival="123.60" arrivalLane="A0A1_0" arrivalPos="93.60" arrivalSpeed="14.27" duration="39.60" routeLength="375.31" waitingTime="0.00" waitingCount="0" stopTime="0.00" timeLoss="12.25" rerouteNo="0" devices="tripinfo_passenger42" vType="passenger" speedFactor="1.03" vaporized=""/>
    <tripinfo id="passenger38" depart="86.40" departLane="D1D0_0" departPos="5.10" departSpeed="0.00" departDelay="10.40" arrival="126.30" arrivalLane="C1D1_0" arrivalPos="89.60" arrivalSpeed="5.86" duration="39.90" routeLength="373.94" waitingTime="0.00" waitingCount="0" stopTime="0.00" timeLoss="14.76" rerouteNo="0" devices="tripinfo_passenger38" vType="passenger" speedFactor="1.15" vaporized=""/>
    <tripinfo id="passenger29" depart="60.00" departLane="D0D1_0" departPos="5.10" departSpeed="0.00" departDelay="2.00" arrival="133.20" arrivalLane="C1C0_0" arrivalPos="85.60" arrivalSpeed="11.47" duration="73.20" routeLength="662.84" waitingTime="0.00" waitingCount="0" stopTime="0.00" timeLoss="11.56" rerouteNo="1" devices="tripinfo_passenger29" vType="passenger" speedFactor="0.83" vaporized=""/>
    <tripinfo id="passenger36" depart="73.60" departLane="B1A1_0" departPos="5.10" departSpeed="0.00" departDelay="1.60" arrival="133.80" arrivalLane="C0D0_0" arrivalPos="89.60" arrivalSpeed="14.18" duration="60.20" routeLength="477.19" waitingTime="6.30" waitingCount="1" stopTime="0.00" timeLoss="24.22" rerouteNo="0" devices="tripinfo_passenger36" vType="passenger" speedFactor="1.02" vaporized=""/>
    <tripinfo id="passenger46" depart="94.30" departLane="C0C1_0" departPos="5.10" departSpeed="0.00" departDelay="2.30" arrival="135.00" arrivalLane="B0A0_0" arrivalPos="89.60" arrivalSpeed="12.26" duration="40.70" routeLength="378.71" waitingTime="0.00" waitingCount="0" stopTime="0.00" timeLoss="7.26" rerouteNo="0" devices="tripinfo_passenger46" vType="passenger" speedFactor="0.89" vaporized=""/>
    <tripinfo id="passenger58" depart="116.00" departLane="A1B1_0" departPos="5.10" departSpeed="0.00" departDelay="0.00" arrival="135.40" arrivalLane="B1C1_0" arrivalPos="85.60" arrivalSpeed="10.26" duration="19.40" routeLength="184.50" waitingTime="0.00" waitingCount="0" stopTime="0.00" timeLoss="5.08" rerouteNo="0" devices="tripinfo_passenger58" vType="passenger" speedFactor="0.93" vaporized=""/>
    <tripinfo id="passenger49" depart="98.60" departLane="C0B0_0" departPos="5.10" departSpeed="0.00" departDelay="0.60" arrival="136.10" arrivalLane="A1A0_0" arrivalPos="93.60" arrivalSpeed="16.00" duration="37.50" routeLength="378.95" waitingTime="0.00" waitingCount="0" stopTime="0.00" timeLoss="12.60" rerouteNo="0" devices="tripinfo_passenger49" vType="passenger" speedFactor="1.15" vaporized=""/>
    <tripinfo id="passenger47" depart="94.00" departLane="B0B1_0" departPos="5.10" departSpeed="0.00" departDelay="0.00" arrival="137.10" arrivalLane="C0B0_0" arrivalPos="85.60" arrivalSpeed="14.23" duration="43.10" routeLength="364.39" waitingTime="0.00" waitingCount="0" stopTime="0.00" timeLoss="15.38" rerouteNo="0" devices="tripinfo_passenger47" vType="passenger" speedFactor="1.03" vaporized=""/>
    <tripinfo id="emergency3" depart="91.50" departLane="C1D1_0" departPos="6.60" departSpeed="0.00" departDelay="1.50" arrival="137.60" arrivalLane="B0A0_0" arrivalPos="89.60" arrivalSpeed="13.79" duration="46.10" routeLength="475.69" waitingTime="0.00" waitingCount="0" stopTime="0.00" timeLoss="9.36" rerouteNo="0" devices="tripinfo_emergency3" vType="emergency" speedFactor="1.00" vaporized=""/>
    <tripinfo id="passenger44" depart="89.50" departLane="A1A0_0" departPos="5.10" departSpeed="0.00" departDelay="1.50" arrival="143.40" arrivalLane="B1C1_0" arrivalPos="85.60" arrivalSpeed="11.54" duration="53.90" routeLength="380.26" waitingTime="8.80" waitingCount="1" stopTime="0.00" timeLoss="18.29" rerouteNo="1" devices="tripinfo_passenger44" vType="passenger" speedFactor="0.83" vaporized=""/>
    <tripinfo id="emergency4" depart="123.30" departLane="B1C1_0" departPos="6.60" departSpeed="0.00" departDelay="3.30" arrival="145.30" arrivalLane="C1C0_0" arrivalPos="85.60" arrivalSpeed="6.43" duration="22.00" routeLength="173.63" waitingTime="0.00" waitingCount="0" stopTime="0.00" timeLoss="8.74" rerouteNo="0" devices="tripinfo_emergency4" vType="emergency" speedFactor="1.00" vaporized=""/>
    <tripinfo id="passenger61" depart="122.00" departLane="D1D0_0" departPos="5.10" departSpeed="0.00" departDelay="0.00" arrival="147.70" arrivalLane="C0B0_0" arrivalPos="85.60" arrivalSpeed="15.28" duration="25.70" routeLength="280.68" waitingTime="0.00" waitingCount="0" stopTime="0.00" timeLoss="6.88" rerouteNo="0" devices="tripinfo_passenger61" vType="passenger" speedFactor="1.10" vaporized=""/>
    <tripinfo id="passenger55" depart="110.00" departLane="B1A1_0" departPos="5.10" departSpeed="0.00" departDelay="0.00" arrival="149.30" arrivalLane="C1C0_0" arrivalPos="85.60" arrivalSpeed="12.12" duration="39.30" routeLength="373.40" waitingTime="0.00" waitingCount="0" stopTime="0.00" timeLoss="6.63" rerouteNo="0" devices="tripinfo_passenger55" vType="passenger" speedFactor="0.87" vaporized=""/>
    <tripinfo id="passenger62" depart="124.40" departLane="C0B0_0" departPos="5.10" departSpeed="0.00" departDelay="0.40" arrival="149.90" arrivalLane="A0B0_0" arrivalPos="89.60" arrivalSpeed="16.06" duration="25.50" routeLength="278.77" waitingTime="0.00" waitingCount="0" stopTime="0.00" timeLoss="7.34" rerouteNo="0" devices="tripinfo_passenger62" vType="passenger" speedFactor="1.16" vaporized=""/>
    <tripinfo id="passenger41" depart="85.50" departLane="B0A0_0" departPos="5.10" departSpeed="0.00" departDelay="3.50" arrival="153.20" arrivalLane="C0D0_0" arrivalPos="89.60" arrivalSpeed="12.70" duration="67.70" routeLength="571.61" waitingTime="2.60" waitingCount="2" stopTime="0.00" timeLoss="18.66" rerouteNo="1" devices="tripinfo_passenger41" vType="passenger" speedFactor="0.92" vaporized=""/>
    <tripinfo id="passenger48" depart="96.90" departLane="B0A0_0" departPos="5.10" departSpeed="0.00" departDelay="0.90" arrival="155.40" arrivalLane="C1C0_0" arrivalPos="85.60" arrivalSpeed="11.21" duration="58.50" routeLength="467.82" waitingTime="1.30" waitingCount="1" stopTime="0.00" timeLoss="19.64" rerouteNo="1" devices="tripinfo_passenger48" vType="passenger" speedFactor="0.95" vaporized=""/>
    <tripinfo id="passenger59" depart="118.00" departLane="A0B0_0" departPos="5.10" departSpeed="0.00" departDelay="0.00" arrival="157.10" arrivalLane="C1C0_0" arrivalPos="85.60" arrivalSpeed="14.29" duration="39.10" routeLength="373.55" waitingTime="0.00" waitingCount="0" stopTime="0.00" timeLoss="10.85" rerouteNo="1" devices="tripinfo_passenger59" vType="passenger" speedFactor="1.03" vaporized=""/>
    <tripinfo id="passenger74" depart="148.00" departLane="A1B1_0" departPos="5.10" departSpeed="0.00" departDelay="0.00" arrival="157.50" arrivalLane="A1B1_0" arrivalPos="89.60" arrivalSpeed="13.29" duration="9.50" routeLength="84.50" waitingTime="0.00" waitingCount="0" stopTime="0.00" timeLoss="3.14" rerouteNo="0" devices="tripinfo_passenger74" vType="passenger" speedFactor="0.96" vaporized=""/>
    <tripinfo id="passenger45" depart="90.20" departLane="B1C1_0" departPos="5.10" departSpeed="0.00" departDelay="0.20" arrival="160.10" arrivalLane="C1C0_0" arrivalPos="85.60" arrivalSpeed="14.71" duration="69.90" routeLength="550.10" waitingTime="10.20" waitingCount="1" stopTime="0.00" timeLoss="28.80" rerouteNo="1" devices="tripinfo_passenger45" vType="passenger" speedFactor="1.07" vaporized=""/>
    <tripinfo id="passenger67" depart="134.00" departLane="C0B0_0" departPos="5.10" departSpeed="0.00" departDelay="0.00" arrival="162.00" arrivalLane="B1B0_0" arrivalPos="85.60" arrivalSpeed="16.00" duration="28.00" routeLength="265.40" waitingTime="0.00" waitingCount="0" stopTime="0.00" timeLoss="9.98" rerouteNo="0" devices="tripinfo_passenger67" vType="passenger" speedFactor="1.15" vaporized=""/>
    <tripinfo id="passenger57" depart="116.60" departLane="C1B1_0" departPos="5.10" departSpeed="0.00" departDelay="2.60" arrival="162.90" arrivalLane="B1C1_0" arrivalPos="85.60" arrivalSpeed="12.13" duration="46.30" routeLength="170.78" waitingTime="24.80" waitingCount="2" stopTime="0.00" timeLoss="31.30" rerouteNo="0" devices="tripinfo_passenger57" vType="passenger" speedFactor="0.88" vaporized=""/>
    <tripinfo id="passenger68" depart="136.00" departLane="A1B1_0" departPos="5.10" departSpeed="0.00" departDelay="0.00" arrival="167.40" arrivalLane="A1A0_0" arrivalPos="93.60" arrivalSpeed="12.43" duration="31.40" routeLength="280.12" waitingTime="0.00" waitingCount="0" stopTime="0.00" timeLoss="7.13" rerouteNo="0" devices="tripinfo_passenger68" vType="passenger" speedFactor="0.90" vaporized=""/>
    <tripinfo id="passenger64" depart="139.70" departLane="B0B1_0" departPos="5.10" departSpeed="0.00" departDelay="11.70" arrival="169.10" arrivalLane="C1C0_0" arrivalPos="85.60" arrivalSpeed="12.84" duration="29.40" routeLength="269.76" waitingTime="0.00" waitingCount="0" stopTime="0.00" timeLoss="6.92" rerouteNo="0" devices="tripinfo_passenger64" vType="passenger" speedFactor="0.93" vaporized=""/>
    <tripinfo id="passenger69" depart="138.00" departLane="B0A0_0" departPos="5.10" departSpeed="0.00" departDelay="0.00" arrival="175.70" arrivalLane="B0B1_0" arrivalPos="85.60" arrivalSpeed="11.23" duration="37.70" routeLength="278.56" waitingTime="2.30" waitingCount="1" stopTime="0.00" timeLoss="10.74" rerouteNo="0" devices="tripinfo_passenger69" vType="passenger" speedFactor="0.81" vaporized=""/>
    <tripinfo id="passenger53" depart="107.30" departLane="D0D1_0" departPos="5.10" departSpeed="0.00" departDelay="1.30" arrival="176.00" arrivalLane="A1A0_0" arrivalPos="93.60" arrivalSpeed="13.34" duration="68.70" routeLength="491.18" waitingTime="14.80" waitingCount="1" stopTime="0.00" timeLoss="30.59" rerouteNo="0" devices="tripinfo_passenger53" vType="passenger" speedFactor="0.97" vaporized=""/>
    <tripinfo id="passenger54" depart="110.60" departLane="D0D1_0" departPos="5.10" departSpeed="0.00" departDelay="2.60" arrival="179.10" arrivalLane="A1A0_0" arrivalPos="93.60" arrivalSpeed="12.71" duration="68.50" routeLength="491.18" waitingTime="11.60" waitingCount="1" stopTime="0.00" timeLoss="28.55" rerouteNo="0" devices="tripinfo_passenger54" vType="passenger" speedFactor="0.92" vaporized=""/>
    <tripinfo id="passenger66" depart="133.20" departLane="C0D0_0" departPos="5.10" departSpeed="0.00" departDelay="1.20" arrival="179.90" arrivalLane="C1B1_0" arrivalPos="85.60" arrivalSpeed="10.58" duration="46.70" routeLength="373.19" waitingTime="3.20" waitingCount="1" stopTime="0.00" timeLoss="17.45" rerouteNo="0" devices="tripinfo_passenger66" vType="passenger" speedFactor="1.00" vaporized=""/>
    <tripinfo id="passenger52" depart="104.60" departLane="C1D1_0" departPos="5.10" departSpeed="0.00" departDelay="0.60" arrival="181.20" arrivalLane="A1A0_0" arrivalPos="93.60" arrivalSpeed="13.10" duration="76.60" routeLength="484.11" waitingTime="16.20" waitingCount="2" stopTime="0.00" timeLoss="37.96" rerouteNo="0" devices="tripinfo_passenger52" vType="passenger" speedFactor="0.95" vaporized=""/>
    <tripinfo id="passenger70" depart="140.00" departLane="C1D1_0" departPos="5.10" departSpeed="0.00" departDelay="0.00" arrival="181.50" arrivalLane="C0B0_0" arrivalPos="85.60" arrivalSpeed="12.05" duration="41.50" routeLength="373.19" waitingTime="0.00" waitingCount="0" stopTime="0.00" timeLoss="7.96" rerouteNo="0" devices="tripinfo_passenger70" vType="passenger" speedFactor="0.88" vaporized=""/>
    <tripinfo id="passenger72" depart="144.00" departLane="C1D1_0" departPos="5.10" departSpeed="0.00" departDelay="0.00" arrival="182.90" arrivalLane="C0D0_0" arrivalPos="89.60" arrivalSpeed="15.28" duration="38.90" routeLength="382.35" waitingTime="0.00" waitingCount="0" stopTime="0.00" timeLoss="11.70" rerouteNo="0" devices="tripinfo_passenger72" vType="passenger" speedFactor="1.11" vaporized=""/>
    <tripinfo id="passenger60" depart="129.80" departLane="D1C1_0" departPos="5.10" departSpeed="0.00" departDelay="9.80" arrival="186.10" arrivalLane="A1A0_0" arrivalPos="93.60" arrivalSpeed="11.37" duration="56.30" routeLength="389.84" waitingTime="5.20" waitingCount="1" stopTime="0.00" timeLoss="21.17" rerouteNo="0" devices="tripinfo_passenger60" vType="passenger" speedFactor="0.82" vaporized=""/>
    <tripinfo id="passenger82" depart="167.90" departLane="C1B1_0" departPos="5.10" departSpeed="0.00" departDelay="3.90" arrival="189.90" arrivalLane="B1B0_0" arrivalPos="85.60" arrivalSpeed="7.29" duration="22.00" routeLength="180.29" waitingTime="0.00" waitingCount="0" stopTime="0.00" timeLoss="7.48" rerouteNo="0" devices="tripinfo_passenger82" vType="passenger" speedFactor="0.95" vaporized=""/>