<?xml version="1.0" encoding="UTF-8"?>

<!-- generated on Mon May  3 15:44:44 2021 by Eclipse SUMO Version 1.1.0
<configuration xmlns:xsi="http://www.w3.org/2001/XMLSchema-instance" xsi:noNamespaceSchemaLocation="http://sumo.dlr.de/xsd/sumoConfiguration.xsd">

    <input>
        <net-file value="contrib/ndn4ivc/traces/square-map/map.net.xml"/>
        <route-files value="contrib/ndn4ivc/traces/square-map/passenger_routes.rou.xml,contrib/ndn4ivc/traces/square-map/emergency_routes.rou.xml,contrib/ndn4ivc/traces/square-map/passenger_accident.xml"/>
    </input>

    <output>
        <emission-output value="contrib/ndn4ivc/traces/square-map/sumo-output.emission.xml"/>
        <tripinfo-output value="contrib/ndn4ivc/traces/square-map/sumo-output.tripinfo.xml"/>
    </output>

    <time>
        <begin value="0"/>
        <end value="3600"/>
        <step-length value="0.100000"/>
    </time>

    <report>
        <verbose value="true"/>
        <error-log value="contrib/ndn4ivc/traces/square-map/SumoError.log"/>
        <no-step-log value="true"/>
    </report>

    <traci_server>
        <remote-port value="3418"/>
    </traci_server>

    <random_number>
        <seed value="10"/>
    </random_number>

    <gui_only>
        <gui-settings-file value="contrib/ndn4ivc/traces/square-map/settings.xml"/>
        <quit-on-end value="true"/>
        <start value="true"/>
        <tracker-interval value="0.1"/>
    </gui_only>

</configuration>
-->

<tripinfos xmlns:xsi="http://www.w3.org/2001/XMLSchema-instance" xsi:noNamespaceSchemaLocation="http://sumo.dlr.de/xsd/tripinfo_file.xsd">
    <tripinfo id="passenger1" depart="2.00" departLane="A1B1_0" departPos="5.10" departSpeed="0.00" departDelay="0.00" arrival="11.50" arrivalLane="A1B1_0" arrivalPos="89.60" arrivalSpeed="13.26" duration="9.50" routeLength="84.50" waitingTime="0.00" waitingCount="0" stopTime="0.00" timeLoss="3.10" rerouteNo="0" devices="tripinfo_passenger1" vType="passenger" speedFactor="0.96" vaporized=""/>
    <tripinfo id="passenger0" depart="0.00" departLane="A0A1_0" departPos="5.10" departSpeed="0.00" departDelay="0.00" arrival="37.50" arrivalLane="B0B1_0" arrivalPos="85.60" arrivalSpeed="15.26" duration="37.50" routeLength="365.58" waitingTime="0.00" waitingCount="0" stopTime="0.00" timeLoss="11.56" rerouteNo="0" devices="tripinfo_passenger0" vType="passenger" speedFactor="1.10" vaporized=""/>
    <tripinfo id="passenger8" depart="16.00" departLane="A1B1_0" departPos="5.10" departSpeed="0.00" departDelay="0.00" arrival="44.20" arrivalLane="B0A0_0" arrivalPos="89.60" arrivalSpeed="13.87" duration="28.20" routeLength="277.76" waitingTime="0.00" waitingCount="0" stopTime="0.00" timeLoss="6.72" rerouteNo="0" devices="tripinfo_passenger8" vType="passenger" speedFactor="1.00" vaporized=""/>
    <tripinfo id="passenger16" depart="34.60" departLane="D0D1_0" departPos="5.10" departSpeed="0.00" departDelay="2.60" arrival="44.50" arrivalLane="D0D1_0" arrivalPos="93.60" arrivalSpeed="13.13" duration="9.90" routeLength="88.50" waitingTime="0.00" waitingCount="0" stopTime="0.00" timeLoss="3.20" rerouteNo="0" devices="tripinfo_passenger16" vType="passenger" speedFactor="0.95" vaporized=""/>
    <tripinfo id="passenger3" depart="6.00" departLane="C1C0_0" departPos="5.10" departSpeed="0.00" departDelay="0.00" arrival="45.60" arrivalLane="D1D0_0" arrivalPos="93.60" arrivalSpeed="13.74" duration="39.60" routeLength="365.58" waitingTime="0.00" waitingCount="0" stopTime="0.00" timeLoss="10.81" rerouteNo="0" devices="tripinfo_passenger3" vType="passenger" speedFactor="1.00" vaporized=""/>
    <tripinfo id="passenger6" depart="12.90" departLane="A1B1_0" departPos="5.10" departSpeed="0.00" departDelay="0.90" arrival="50.10" arrivalLane="C0D0_0" arrivalPos="89.60" arrivalSpeed="12.83" duration="37.20" routeLength="382.92" waitingTime="0.00" waitingCount="0" stopTime="0.00" timeLoss="5.78" rerouteNo="0" devices="tripinfo_passenger6" vType="passenger" speedFactor="0.93" vaporized=""/>
    <tripinfo id="passenger7" depart="14.20" departLane="A0A1_0" departPos="5.10" departSpeed="0.00" departDelay="0.20" arrival="51.60" arrivalLane="B0B1_0" arrivalPos="85.60" arrivalSpeed="15.36" duration="37.40" routeLength="365.58" waitingTime="0.00" waitingCount="0" stopTime="0.00" timeLoss="11.84" rerouteNo="0" devices="tripinfo_passenger7" vType="passenger" speedFactor="1.11" vaporized=""/>
    <tripinfo id="passenger22" depart="44.00" departLane="B1A1_0" departPos="5.10" departSpeed="0.00" departDelay="0.00" arrival="53.50" arrivalLane="B1A1_0" arrivalPos="89.60" arrivalSpeed="13.80" duration="9.50" routeLength="84.50" waitingTime="0.00" waitingCount="0" stopTime="0.00" timeLoss="3.38" rerouteNo="0" devices="tripinfo_passenger22" vType="passenger" speedFactor="1.00" vaporized=""/>
    <tripinfo id="passenger11" depart="22.00" departLane="C0C1_0" departPos="5.10" departSpeed="0.00" departDelay="0.00" arrival="60.10" arrivalLane="D0C0_0" arrivalPos="89.60" arrivalSpeed="14.37" duration="38.10" routeLength="367.49" waitingTime="0.00" waitingCount="0" stopTime="0.00" timeLoss="11.04" rerouteNo="0" devices="tripinfo_passenger11" vType="passenger" speedFactor="1.04" vaporized=""/>
    <tripinfo id="passenger18" depart="41.70" departLane="B1B0_0" departPos="5.10" departSpeed="0.00" departDelay="5.70" arrival="63.00" arrivalLane="B0A0_0" arrivalPos="89.60" arrivalSpeed="6.75" duration="21.30" routeLength="179.13" waitingTime="0.00" waitingCount="0" stopTime="0.00" timeLoss="8.33" rerouteNo="0" devices="tripinfo_passenger18" vType="passenger" speedFactor="1.05" vaporized=""/>
    <tripinfo id="passenger4" depart="8.00" departLane="D0D1_0" departPos="5.10" departSpeed="0.00" departDelay="0.00" arrival="65.40" arrivalLane="B1C1_0" arrivalPos="85.60" arrivalSpeed="12.57" duration="57.40" routeLength="376.12" waitingTime="16.10" waitingCount="1" stopTime="0.00" timeLoss="25.80" rerouteNo="0" devices="tripinfo_passenger4" vType="passenger" speedFactor="0.91" vaporized=""/>
    <tripinfo id="passenger13" depart="26.00" departLane="C1B1_0" departPos="5.10" departSpeed="0.00" departDelay="0.00" arrival="70.10" arrivalLane="A0B0_0" arrivalPos="89.60" arrivalSpeed="15.04" duration="44.10" routeLength="373.19" waitingTime="4.30" waitingCount="1" stopTime="0.00" timeLoss="17.10" rerouteNo="0" devices="tripinfo_passenger13" vType="passenger" speedFactor="1.08" vaporized=""/>
    <tripinfo id="passenger9" depart="18.00" departLane="A1A0_0" departPos="5.10" departSpeed="0.00" departDelay="0.00" arrival="72.30" arrivalLane="D1C1_0" arrivalPos="89.60" arrivalSpeed="14.58" duration="54.30" routeLength="577.22" waitingTime="0.00" waitingCount="0" stopTime="0.00" timeLoss="12.54" rerouteNo="0" devices="tripinfo_passenger9" vType="passenger" speedFactor="1.05" vaporized=""/>
    <tripinfo id="passenger12" depart="24.00" departLane="C0D0_0" departPos="5.10" departSpeed="0.00" departDelay="0.00" arrival="72.60" arrivalLane="B1C1_0" arrivalPos="85.60" arrivalSpeed="12.51" duration="48.60" routeLength="468.03" waitingTime="0.00" waitingCount="0" stopTime="0.00" timeLoss="8.67" rerouteNo="0" devices="tripinfo_passenger12" vType="passenger" speedFactor="0.91" vaporized=""/>
    <tripinfo id="passenger26" depart="54.60" departLane="C1C0_0" departPos="5.10" departSpeed="0.00" departDelay="2.60" arrival="73.10" arrivalLane="C0D0_0" arrivalPos="89.60" arrivalSpeed="14.67" duration="18.50" routeLength="184.29" waitingTime="0.00" waitingCount="0" stopTime="0.00" timeLoss="5.27" rerouteNo="0" devices="tripinfo_passenger26" vType="passenger" speedFactor="1.07" vaporized=""/>
    <tripinfo id="passenger25" depart="50.30" departLane="C1C0_0" departPos="5.10" departSpeed="0.00" departDelay="0.30" arrival="75.80" arrivalLane="B0A0_0" arrivalPos="89.60" arrivalSpeed="14.41" duration="25.50" routeLength="279.13" waitingTime="0.00" waitingCount="0" stopTime="0.00" timeLoss="5.50" rerouteNo="0" devices="tripinfo_passenger25" vType="passenger" speedFactor="1.05" vaporized=""/>
    <tripinfo id="passenger23" depart="46.00" departLane="A0A1_0" departPos="5.10" departSpeed="0.00" departDelay="0.00" arrival="76.30" arrivalLane="A0B0_0" arrivalPos="89.60" arrivalSpeed="14.03" duration="30.30" routeLength="284.11" waitingTime="0.00" waitingCount="0" stopTime="0.00" timeLoss="8.47" rerouteNo="0" devices="tripinfo_passenger23" vType="passenger" speedFactor="1.02" vaporized=""/>
    <tripinfo id="passenger14" depart="31.90" departLane="A0A1_0" departPos="5.10" departSpeed="0.00" departDelay="3.90" arrival="76.60" arrivalLane="C0B0_0" arrivalPos="85.60" arrivalSpeed="14.34" duration="44.70" routeLength="469.94" waitingTime="0.00" waitingCount="0" stopTime="0.00" timeLoss="10.39" rerouteNo="0" devices="tripinfo_passenger14" vType="passenger" speedFactor="1.04" vaporized=""/>
    <tripinfo id="emergency1" depart="31.90" departLane="B0B1_0" departPos="6.60" departSpeed="0.00" departDelay="1.90" arrival="78.70" arrivalLane="D0D1_0" arrivalPos="93.60" arrivalSpeed="13.81" duration="46.80" routeLength="472.08" waitingTime="0.00" waitingCount="0" stopTime="0.00" timeLoss="10.78" rerouteNo="0" devices="tripinfo_emergency1" vType="emergency" speedFactor="1.00" vaporized=""/>
    <tripinfo id="passenger15" depart="30.00" departLane="B1A1_0" departPos="5.10" departSpeed="0.00" departDelay="0.00" arrival="79.40" arrivalLane="C0D0_0" arrivalPos="89.60" arrivalSpeed="15.38" duration="49.40" routeLength="477.19" waitingTime="3.30" waitingCount="1" stopTime="0.00" timeLoss="16.36" rerouteNo="0" devices="tripinfo_passenger15" vType="passenger" speedFactor="1.11" vaporized=""/>
    <tripinfo id="passenger21" depart="42.00" departLane="D0D1_0" departPos="5.10" departSpeed="0.00" departDelay="0.00" arrival="79.90" arrivalLane="C0C1_0" arrivalPos="85.60" arrivalSpeed="14.91" duration="37.90" routeLength="373.58" waitingTime="0.00" waitingCount="0" stopTime="0.00" timeLoss="11.13" rerouteNo="0" devices="tripinfo_passenger21" vType="passenger" speedFactor="1.08" vaporized=""/>
    <tripinfo id="passenger20" depart="44.50" departLane="D1D0_0" departPos="5.10" departSpeed="0.00" departDelay="4.50" arrival="83.30" arrivalLane="C1D1_0" arrivalPos="89.60" arrivalSpeed="13.57" duration="38.80" routeLength="373.94" waitingTime="0.00" waitingCount="0" stopTime="0.00" timeLoss="9.56" rerouteNo="0" devices="tripinfo_passenger20" vType="passenger" speedFactor="0.98" vaporized=""/>
    <tripinfo id="passenger19" depart="38.40" departLane="D0C0_0" departPos="5.10" departSpeed="0.00" departDelay="0.40" arrival="84.20" arrivalLane="C1C0_0" arrivalPos="85.60" arrivalSpeed="13.50" duration="45.80" routeLength="468.39" waitingTime="0.00" waitingCount="0" stopTime="0.00" timeLoss="9.08" rerouteNo="1" devices="tripinfo_passenger19" vType="passenger" speedFactor="0.98" vaporized=""/>
    <tripinfo id="passenger35" depart="77.40" departLane="C1D1_0" departPos="5.10" departSpeed="0.00" departDelay="7.40" arrival="87.10" arrivalLane="C1D1_0" arrivalPos="89.60" arrivalSpeed="12.81" duration="9.70" routeLength="84.50" waitingTime="0.00" waitingCount="0" stopTime="0.00" timeLoss="3.14" rerouteNo="0" devices="tripinfo_passenger35" vType="passenger" speedFactor="0.93" vaporized=""/>
    <tripinfo id="passenger10" depart="21.80" departLane="D1C1_0" departPos="5.10" departSpeed="0.00" departDelay="1.80" arrival="88.60" arrivalLane="B0A0_0" arrivalPos="89.60" arrivalSpeed="14.00" duration="66.80" routeLength="382.92" waitingTime="14.90" waitingCount="2" stopTime="0.00" timeLoss="37.97" rerouteNo="0" devices="tripinfo_passenger10" vType="passenger" speedFactor="1.01" vaporized=""/>
    <tripinfo id="passenger28" depart="56.00" departLane="C1B1_0" departPos="5.10" departSpeed="0.00" departDelay="0.00" arrival="92.10" arrivalLane="A1B1_0" arrivalPos="89.60" arrivalSpeed="12.96" duration="36.10" routeLength="278.77" waitingTime="0.00" waitingCount="0" stopTime="0.00" timeLoss="13.57" rerouteNo="0" devices="tripinfo_passenger28" vType="passenger" speedFactor="0.93" vaporized=""/>
    <tripinfo id="passenger31" depart="63.80" departLane="A0B0_0" departPos="5.10" departSpeed="0.00" departDelay="1.80" arrival="93.80" arrivalLane="B1B0_0" arrivalPos="85.60" arrivalSpeed="13.04" duration="30.00" routeLength="274.56" waitingTime="0.00" waitingCount="0" stopTime="0.00" timeLoss="7.19" rerouteNo="0" devices="tripinfo_passenger31" vType="passenger" speedFactor="0.94" vaporized=""/>
    <tripinfo id="emergency2" depart="60.00" departLane="D1C1_0" departPos="6.60" departSpeed="0.00" departDelay="0.00" arrival="98.40" arrivalLane="B0B1_0" arrivalPos="85.60" arrivalSpeed="13.87" duration="38.40" routeLength="373.06" waitingTime="0.00" waitingCount="0" stopTime="0.00" timeLoss="9.82" rerouteNo="0" devices="tripinfo_emergency2" vType="emergency" speedFactor="1.00" vaporized=""/>
    <tripinfo id="passenger42" depart="84.00" departLane="C1C0_0" departPos="5.10" departSpeed="0.00" departDelay="0.00" arrival="99.60" arrivalLane="C1C0_0" arrivalPos="85.60" arrivalSpeed="5.36" duration="15.60" routeLength="80.50" waitingTime="0.00" waitingCount="0" stopTime="0.00" timeLoss="9.99" rerouteNo="0" devices="tripinfo_passenger42" vType="passenger" speedFactor="1.03" vaporized=""/>
    <tripinfo id="passenger30" depart="62.80" departLane="D0D1_0" departPos="5.10" departSpeed="0.00" departDelay="2.80" arrival="99.80" arrivalLane="C0B0_0" arrivalPos="85.60" arrivalSpeed="14.15" duration="37.00" routeLength="378.95" waitingTime="0.00" waitingCount="0" stopTime="0.00" timeLoss="8.91" rerouteNo="0" devices="tripinfo_passenger30" vType="passenger" speedFactor="1.03" vaporized=""/>
    <tripinfo id="passenger24" depart="48.00" departLane="A1A0_0" departPos="5.10" departSpeed="0.00" departDelay="0.00" arrival="101.50" arrivalLane="C1C0_0" arrivalPos="85.60" arrivalSpeed="8.12" duration="53.50" routeLength="474.89" waitingTime="0.90" waitingCount="1" stopTime="0.00" timeLoss="18.24" rerouteNo="1" devices="tripinfo_passenger24" vType="passenger" speedFactor="1.05" vaporized=""/>
    <tripinfo id="passenger17" depart="34.00" departLane="C1B1_0" departPos="5.10" departSpeed="0.00" departDelay="0.00" arrival="109.40" arrivalLane="C0D0_0" arrivalPos="89.60" arrivalSpeed="9.48" duration="75.40" routeLength="369.20" waitingTime="21.10" waitingCount="3" stopTime="0.00" timeLoss="39.92" rerouteNo="0" devices="tripinfo_passenger17" vType="passenger" speedFactor="0.82" vaporized=""/>
    <tripinfo id="passenger32" depart="64.00" departLane="B1B0_0" departPos="5.10" departSpeed="0.00" departDelay="0.00" arrival="110.10" arrivalLane="A1B1_0" arrivalPos="89.60" arrivalSpeed="14.26" duration="46.10" routeLength="367.49" waitingTime="0.00" waitingCount="0" stopTime="0.00" timeLoss="18.72" rerouteNo="0" devices="tripinfo_passenger32" vType="passenger" speedFactor="1.03" vaporized=""/>
    <tripinfo id="passenger33" depart="66.00" departLane="C1B1_0" departPos="5.10" departSpeed="0.00" departDelay="0.00" arrival="115.90" arrivalLane="C1C0_0" arrivalPos="85.60" arrivalSpeed="9.23" duration="49.90" routeLength="459.82" waitingTime="0.00" waitingCount="0" stopTime="0.00" timeLoss="14.85" rerouteNo="1" devices="tripinfo_passenger33" vType="passenger" speedFactor="1.03" vaporized=""/>
    <tripinfo id="passenger47" depart="94.70" departLane="B1C1_0" departPos="5.10" departSpeed="0.00" departDelay="0.70" arrival="121.20" arrivalLane="D1D0_0" arrivalPos="93.60" arrivalSpeed="14.17" duration="26.50" routeLength="280.68" waitingTime="0.00" waitingCount="0" stopTime="0.00" timeLoss="6.41" rerouteNo="0" devices="tripinfo_passenger47" vType="passenger" speedFactor="1.03" vaporized=""/>
    <tripinfo id="passenger44" depart="89.30" departLane="C1B1_0" departPos="5.10" departSpeed="0.00" departDelay="1.30" arrival="123.50" arrivalLane="A1A0_0" arrivalPos="93.60" arrivalSpeed="11.43" duration="34.20" routeLength="285.84" waitingTime="0.00" waitingCount="0" stopTime="0.00" timeLoss="8.51" rerouteNo="0" devices="tripinfo_passenger44" vType="passenger" speedFactor="0.83" vaporized=""/>
    <tripinfo id="passenger34" depart="68.00" departLane="B1A1_0" departPos="5.10" departSpeed="0.00" departDelay="0.00" arrival="124.00" arrivalLane="D0D1_0" arrivalPos="93.60" arrivalSpeed="11.38" duration="56.00" routeLength="577.22" waitingTime="0.00" waitingCount="0" stopTime="0.00" timeLoss="13.12" rerouteNo="0" devices="tripinfo_passenger34" vType="passenger" speedFactor="1.03" vaporized=""/>
    <tripinfo id="passenger37" depart="74.00" departLane="B0A0_0" departPos="5.10" departSpeed="0.00" departDelay="0.00" arrival="124.60" arrivalLane="C1C0_0" arrivalPos="85.60" arrivalSpeed="12.34" duration="50.60" routeLength="467.82" waitingTime="0.00" waitingCount="0" stopTime="0.00" timeLoss="9.53" rerouteNo="1" devices="tripinfo_passenger37" vType="passenger" speedFactor="0.89" vaporized=""/>
    <tripinfo id="passenger51" depart="102.00" departLane="D0C0_0" departPos="5.10" departSpeed="0.00" departDelay="0.00" arrival="126.80" arrivalLane="B0B1_0" arrivalPos="85.60" arrivalSpeed="14.63" duration="24.80" routeLength="279.13" waitingTime="0.00" waitingCount="0" stopTime="0.00" timeLoss="5.12" rerouteNo="0" devices="tripinfo_passenger51" vType="passenger" speedFactor="1.06" vaporized=""/>
    <tripinfo id="passenger43" depart="86.00" departLane="C0C1_0" departPos="5.10" departSpeed="0.00" departDelay="0.00" arrival="128.20" arrivalLane="D0D1_0" arrivalPos="93.60" arrivalSpeed="12.58" duration="42.20" routeLength="373.58" waitingTime="0.00" waitingCount="0" stopTime="0.00" timeLoss="10.05" rerouteNo="0" devices="tripinfo_passenger43" vType="passenger" speedFactor="0.91" vaporized=""/>
    <tripinfo id="passenger36" depart="74.10" departLane="C0D0_0" departPos="5.10" departSpeed="0.00" departDelay="2.10" arrival="129.50" arrivalLane="C1C0_0" arrivalPos="85.60" arrivalSpeed="14.12" duration="55.40" routeLength="562.66" waitingTime="0.20" waitingCount="1" stopTime="0.00" timeLoss="12.77" rerouteNo="1" devices="tripinfo_passenger36" vType="passenger" speedFactor="1.02" vaporized=""/>
    <tripinfo id="passenger39" depart="79.90" departLane="C1B1_0" departPos="5.10" departSpeed="0.00" departDelay="1.90" arrival="130.30" arrivalLane="A0A1_0" arrivalPos="93.60" arrivalSpeed="13.28" duration="50.40" routeLength="375.10" waitingTime="4.60" waitingCount="1" stopTime="0.00" timeLoss="20.27" rerouteNo="0" devices="tripinfo_passenger39" vType="passenger" speedFactor="0.96" vaporized=""/>
    <tripinfo id="passenger29" depart="58.00" departLane="B1B0_0" departPos="5.10" departSpeed="0.00" departDelay="0.00" arrival="135.30" arrivalLane="D0D1_0" arrivalPos="93.60" arrivalSpeed="11.50" duration="77.30" routeLength="565.16" waitingTime="8.30" waitingCount="2" stopTime="0.00" timeLoss="23.93" rerouteNo="1" devices="tripinfo_passenger29" vType="passenger" speedFactor="0.83" vaporized=""/>
    <tripinfo id="passenger38" depart="76.00" departLane="C1B1_0" departPos="5.10" departSpeed="0.00" departDelay="0.00" arrival="137.10" arrivalLane="D0D1_0" arrivalPos="93.60" arrivalSpeed="15.85" duration="61.10" routeLength="469.23" waitingTime="11.50" waitingCount="2" stopTime="0.00" timeLoss="29.53" rerouteNo="0" devices="tripinfo_passenger38" vType="passenger" speedFactor="1.15" vaporized=""/>
    <tripinfo id="passenger48" depart="96.00" departLane="C0D0_0" departPos="5.10" departSpeed="0.00" departDelay="0.00" arrival="139.50" arrivalLane="C1B1_0" arrivalPos="85.60" arrivalSpeed="13.15" duration="43.50" routeLength="373.19" waitingTime="1.60" waitingCount="1" stopTime="0.00" timeLoss="12.57" rerouteNo="0" devices="tripinfo_passenger48" vType="passenger" speedFactor="0.95" vaporized=""/>
    <tripinfo id="passenger55" depart="110.00" departLane="A0B0_0" departPos="5.10" departSpeed="0.00" departDelay="0.00" arrival="141.00" arrivalLane="B1B0_0" arrivalPos="85.60" arrivalSpeed="12.05" duration="31.00" routeLength="274.56" waitingTime="0.00" waitingCount="0" stopTime="0.00" timeLoss="6.33" rerouteNo="0" devices="tripinfo_passenger55" vType="passenger" speedFactor="0.87" vaporized=""/>
    <tripinfo id="passenger50" depart="101.60" departLane="C0D0_0" departPos="5.10" departSpeed="0.00" departDelay="1.60" arrival="141.00" arrivalLane="C1B1_0" arrivalPos="85.60" arrivalSpeed="14.83" duration="39.40" routeLength="373.19" waitingTime="0.00" waitingCount="0" stopTime="0.00" timeLoss="12.05" rerouteNo="0" devices="tripinfo_passenger50" vType="passenger" speedFactor="1.08" vaporized=""/>
    <tripinfo id="passenger59" depart="118.00" departLane="C1B1_0" departPos="5.10" departSpeed="0.00" departDelay="0.00" arrival="143.90" arrivalLane="A1A0_0" arrivalPos="93.60" arrivalSpeed="14.18" duration="25.90" routeLength="285.84" waitingTime="0.00" waitingCount="0" stopTime="0.00" timeLoss="5.22" rerouteNo="0" devices="tripinfo_passenger59" vType="passenger" speedFactor="1.03" vaporized=""/>
    <tripinfo id="passenger54" depart="108.00" departLane="A0A1_0" departPos="5.10" departSpeed="0.00" departDelay="0.00" arrival="146.80" arrivalLane="C1B1_0" arrivalPos="85.60" arrivalSpeed="12.77" duration="38.80" routeLength="370.96" waitingTime="0.00" waitingCount="0" stopTime="0.00" timeLoss="8.36" rerouteNo="0" devices="tripinfo_passenger54" vType="passenger" speedFactor="0.92" vaporized=""/>
    <tripinfo id="passenger53" depart="106.00" departLane="B1B0_0" departPos="5.10" departSpeed="0.00" departDelay="0.00" arrival="152.50" arrivalLane="C1C0_0" arrivalPos="85.60" arrivalSpeed="13.33" duration="46.50" routeLength="360.03" waitingTime="6.00" waitingCount="1" stopTime="0.00" timeLoss="17.18" rerouteNo="1" devices="tripinfo_passenger53" vType="passenger" speedFactor="0.97" vaporized=""/>
    <tripinfo id="passenger49" depart="98.40" departLane="B1A1_0" departPos="5.10" departSpeed="0.00" departDelay="0.40" arrival="154.30" arrivalLane="D0D1_0" arrivalPos="93.60" arrivalSpeed="14.41" duration="55.90" routeLength="577.22" waitingTime="1.30" waitingCount="1" stopTime="0.00" timeLoss="17.84" rerouteNo="0" devices="tripinfo_passenger49" vType="passenger" speedFactor="1.15" vaporized=""/>
    <tripinfo id="passenger58" depart="119.30" departLane="B1C1_0" departPos="5.10" departSpeed="0.00" departDelay="3.30" arrival="157.70" arrivalLane="D0C0_0" arrivalPos="89.60" arrivalSpeed="12.80" duration="38.40" routeLength="372.86" waitingTime="0.00" waitingCount="0" stopTime="0.00" timeLoss="8.41" rerouteNo="0" devices="tripinfo_passenger58" vType="passenger" speedFactor="0.93" vaporized=""/>
    <tripinfo id="passenger60" depart="124.50" departLane="D1D0_0" departPos="5.10" departSpeed="0.00" departDelay="4.50" arrival="158.90" arrivalLane="D1C1_0" arrivalPos="89.60" arrivalSpeed="11.31" duration="34.40" routeLength="284.11" waitingTime="0.00" waitingCount="0" stopTime="0.00" timeLoss="7.38" rerouteNo="0" devices="tripinfo_passenger60" vType="passenger" speedFactor="0.82" vaporized=""/>
    <tripinfo id="passenger61" depart="122.00" departLane="D0C0_0" departPos="5.10" departSpeed="0.00" departDelay="0.00" arrival="160.60" arrivalLane="D1C1_0" arrivalPos="89.60" arrivalSpeed="15.18" duration="38.60" routeLength="377.46" waitingTime="0.00" waitingCount="0" stopTime="0.00" timeLoss="11.71" rerouteNo="0" devices="tripinfo_passenger61" vType="passenger" speedFactor="1.10" vaporized=""/>
    <tripinfo id="passenger65" depart="130.30" departLane="A1B1_0" departPos="5.10" departSpeed="0.00" departDelay="0.30" arrival="165.80" arrivalLane="C0C1_0" arrivalPos="85.60" arrivalSpeed="14.43" duration="35.50" routeLength="369.40" waitingTime="0.00" waitingCount="0" stopTime="0.00" timeLoss="8.22" rerouteNo="0" devices="tripinfo_passenger65" vType="passenger" speedFactor="1.04" vaporized=""/>
    <tripinfo id="passenger52" depart="106.50" departLane="D0D1_0" departPos="5.10" departSpeed="0.00" departDelay="2.50" arrival="176.40" arrivalLane="B0A0_0" arrivalPos="89.60" arrivalSpeed="7.65" duration="69.90" routeLength="482.95" waitingTime="5.60" waitingCount="1" stopTime="0.00" timeLoss="31.59" rerouteNo="0" devices="tripinfo_passenger52" vType="passenger" speedFactor="0.95" vaporized=""/>
    <tripinfo id="passenger75" depart="150.00" departLane="B1A1_0" departPos="5.10" departSpeed="0.00" departDelay="0.00" arrival="179.70" arrivalLane="A0B0_0" arrivalPos="89.60" arrivalSpeed="12.97" duration="29.70" routeLength="283.18" waitingTime="0.00" waitingCount="0" stopTime="0.00" timeLoss="6.46" rerouteNo="0" devices="tripinfo_passenger75" vType="passenger" speedFactor="0.94" vaporized=""/>
    <tripinfo id="passenger46" depart="92.00" departLane="D0D1_0" departPos="5.10" departSpeed="0.00" departDelay="0.00" arrival="183.80" arrivalLane="A0A1_0" arrivalPos="93.60" arrivalSpeed="12.18" duration="91.80" routeLength="579.13" waitingTime="21.90" waitingCount="2" stopTime="0.00" timeLoss="42.60" rerouteNo="0" devices="tripinfo_passenger46" vType="passenger" speedFactor="0.89" vaporized=""/>
    <tripinfo id="passenger67" depart="137.70" departLane="A1A0_0" departPos="5.10" departSpeed="0.00" departDelay="3.70" arrival="184.60" arrivalLane="C1D1_0" arrivalPos="89.60" arrivalSpeed="7.25" duration="46.90" routeLength="482.95" waitingTime="0.00" waitingCount="0" stopTime="0.00" timeLoss="15.55" rerouteNo="0" devices="tripinfo_passenger67" vType="passenger" speedFactor="1.15" vaporized=""/>
    <tripinfo id="passenger78" depart="160.80" departLane="C0C1_0" departPos="5.10" departSpeed="0.00" departDelay="4.80" arrival="186.10" arrivalLane="C1B1_0" arrivalPos="85.60" arrivalSpeed="12.76" duration="25.30" routeLength="180.29" waitingTime="3.40" waitingCount="1" stopTime="0.00" timeLoss="10.43" rerouteNo="0" devices="tripinfo_passenger78" vType="passenger" speedFactor="0.93" vaporized=""/>
    <tripinfo id="passenger63" depart="129.70" departLane="B0B1_0" departPos="5.10" departSpeed="0.00" departDelay="3.70" arrival="186.40" arrivalLane="C0D0_0" arrivalPos="89.60" arrivalSpeed="10.57" duration="56.70" routeLength="373.55" waitingTime="6.90" waitingCount="1" stopTime="0.00" timeLoss="29.84" rerouteNo="0" devices="tripinfo_passenger63" vType="passenger" speedFactor="1.08" vaporized=""/>
    <tripinfo id="passenger71" depart="148.20" departLane="D0D1_0" departPos="5.10" departSpeed="0.00" departDelay="6.20" arrival="188.30" arrivalLane="C0D0_0" arrivalPos="89.60" arrivalSpeed="14.74" duration="40.10" routeLength="373.23" waitingTime="0.00" waitingCount="0" stopTime="0.00" timeLoss="12.65" rerouteNo="0" devices="tripinfo_passenger71" vType="passenger" speedFactor="1.07" vaporized=""/>
    <tripinfo id="passenger76" depart="152.00" departLane="A0B0_0" departPos="5.10" departSpeed="0.00" departDelay="0.00" arrival="189.30" arrivalLane="B1B0_0" arrivalPos="85.60" arrivalSpeed="13.72" duration="37.30" routeLength="274.56" waitingTime="4.40" waitingCount="2" stopTime="0.00" timeLoss="15.44" rerouteNo="0" devices="tripinfo_passenger76" vType="passenger" speedFactor="0.99" vaporized=""/>
    <tripinfo id="passenger77" depart="154.00" departLane="A1B1_0" departPos="5.10" departSpeed="0.00" departDelay="0.00" arrival="192.30" arrivalLane="D1C1_0" arrivalPos="89.60" arrivalSpeed="11.96" duration="38.30" routeLength="382.77" waitingTime="0.00" waitingCount="0" stopTime="0.00" timeLoss="5.47" rerouteNo="0" devices="tripinfo_passenger77" vType="passenger" speedFactor="0.87" vaporized=""/>
    <tripinfo id="passenger56" depart="112.20" departLane="B1B0_0" departPos="5.10" departSpeed="0.00" departDelay="0.20" arrival="193.10" arrivalLane="D0D1_0" arrivalPos="93.60" arrivalSpeed="14.79" duration="80.90" routeLength="565.16" waitingTime="14.40" waitingCount="2" stopTime="0.00" timeLoss="39.15" rerouteNo="1" devices="tripinfo_passenger56" vType="passenger" speedFactor="1.07" vaporized=""/>
    <tripinfo id="passenger66" depart="140.60" departLane="C1B1_0" departPos="5.10" departSpeed="0.00" departDelay="8.60" arrival="196.50" arrivalLane="D0D1_0" arrivalPos="93.60" arrivalSpeed="13.87" duration="55.90" routeLength="469.23" waitingTime="5.70" waitingCount="2" stopTime="0.00" timeLoss="19.95" rerouteNo="0" devices="tripinfo_passenger66" vType="passenger" speedFactor="1.00" vaporized=""/>
    <tripinfo id="passenger83" depart="166.80" departLane="B1B0_0" departPos="5.10" departSpeed="0.00" departDelay="0.80" arrival="196.90" arrivalLane="B1C1_0" arrivalPos="85.60" arrivalSpeed="12.79" duration="30.10" routeLength="265.40" waitingTime="0.00" waitingCount="0" stopTime="0.00" timeLoss="7.50" rerouteNo="0" devices="tripinfo_passenger83" vType="passenger" speedFactor="0.92" vaporized=""/>
    <tripinfo id="passenger81" depart="165.10" departLane="C0C1_0" departPos="5.10" departSpeed="0.00" departDelay="3.10" arrival="197.50" arrivalLane="B1B0_0" arrivalPos="85.60" arrivalSpeed="11.82" duration="32.40" routeLength="280.08" waitingTime="0.00" waitingCount="0" stopTime="0.00" timeLoss="11.07" rerouteNo="0" devices="tripinfo_passenger81" vType="passenger" speedFactor="1.02" vaporized=""/>
    <tripinfo id="passenger88" depart="176.20" departLane="C1D1_0" departPos="5.10" departSpeed="0.00" departDelay="0.20" arrival="204.00" arrivalLane="C1B1_0" arrivalPos="85.60" arrivalSpeed="14.08" duration="27.80" routeLength="278.77" waitingTime="0.00" waitingCount="0" stopTime="0.00" timeLoss="6.98" rerouteNo="0" devices="tripinfo_passenger88" vType="passenger" speedFactor="1.01" vaporized=""/>
    <tripinfo id="passenger2" depart="4.00" departLane="B0A0_0" departPos="5.10" departSpeed="0.00" departDelay="0.00" arrival="208.60" arrivalLane="C0C1_0" arrivalPos="85.60" arrivalSpeed="10.18" duration="204.60" routeLength="378.56" waitingTime="156.50" waitingCount="1" stopTime="0.00" timeLoss="177.09" rerouteNo="0" devices="tripinfo_passenger2" vType="passenger" speedFactor="1.05" vaporized=""/>