<?xml version="1.0" encoding="UTF-8"?>

<!-- generated on Mon May  3 15:32:24 2021 by Eclipse SUMO Version 1.1.0
<configuration xmlns:xsi="http://www.w3.org/2001/XMLSchema-instance" xsi:noNamespaceSchemaLocation="http://sumo.dlr.de/xsd/sumoConfiguration.xsd">

    <input>
        <net-file value="contrib/ndn4ivc/traces/square-map/map.net.xml"/>
        <route-files value="contrib/ndn4ivc/traces/square-map/passenger_routes.rou.xml,contrib/ndn4ivc/traces/square-map/emergency_routes.rou.xml,contrib/ndn4ivc/traces/square-map/passenger_accident.xml"/>
    </input>

    <output>
        <emission-output value="contrib/ndn4ivc/traces/square-map/sumo-output.emission.xml"/>
        <tripinfo-output value="contrib/ndn4ivc/traces/square-map/sumo-output.tripinfo.xml"/>
    </output>

    <time>
        <begin value="0"/>
        <end value="3600"/>
        <step-length value="0.100000"/>
    </time>

    <report>
        <verbose value="true"/>
        <error-log value="contrib/ndn4ivc/traces/square-map/SumoError.log"/>
        <no-step-log value="true"/>
    </report>

    <traci_server>
        <remote-port value="3418"/>
    </traci_server>

    <random_number>
        <seed value="10"/>
    </random_number>

    <gui_only>
        <gui-settings-file value="contrib/ndn4ivc/traces/square-map/settings.xml"/>
        <quit-on-end value="true"/>
        <start value="true"/>
        <tracker-interval value="0.1"/>
    </gui_only>

</configuration>
-->

<tripinfos xmlns:xsi="http://www.w3.org/2001/XMLSchema-instance" xsi:noNamespaceSchemaLocation="http://sumo.dlr.de/xsd/tripinfo_file.xsd">
    <tripinfo id="passenger0" depart="0.00" departLane="A0A1_0" departPos="5.10" departSpeed="0.00" departDelay="0.00" arrival="32.10" arrivalLane="C1D1_0" arrivalPos="89.60" arrivalSpeed="15.25" duration="32.10" routeLength="384.68" waitingTime="0.00" waitingCount="0" stopTime="0.00" timeLoss="6.44" rerouteNo="0" devices="tripinfo_passenger0" vType="passenger" speedFactor="1.10" vaporized=""/>
    <tripinfo id="passenger3" depart="6.00" departLane="C1C0_0" departPos="5.10" departSpeed="0.00" departDelay="0.00" arrival="34.70" arrivalLane="D0D1_0" arrivalPos="93.60" arrivalSpeed="13.70" duration="28.70" routeLength="285.63" waitingTime="0.00" waitingCount="0" stopTime="0.00" timeLoss="6.50" rerouteNo="0" devices="tripinfo_passenger3" vType="passenger" speedFactor="1.00" vaporized=""/>
    <tripinfo id="passenger15" depart="30.00" departLane="D0D1_0" departPos="5.10" departSpeed="0.00" departDelay="0.00" arrival="39.50" arrivalLane="D0D1_0" arrivalPos="93.60" arrivalSpeed="15.35" duration="9.50" routeLength="88.50" waitingTime="0.00" waitingCount="0" stopTime="0.00" timeLoss="3.73" rerouteNo="0" devices="tripinfo_passenger15" vType="passenger" speedFactor="1.11" vaporized=""/>
    <tripinfo id="passenger7" depart="16.00" departLane="C0C1_0" departPos="5.10" departSpeed="0.00" departDelay="2.00" arrival="42.50" arrivalLane="B1A1_0" arrivalPos="89.60" arrivalSpeed="15.45" duration="26.50" routeLength="284.29" waitingTime="0.00" waitingCount="0" stopTime="0.00" timeLoss="7.40" rerouteNo="0" devices="tripinfo_passenger7" vType="passenger" speedFactor="1.11" vaporized=""/>
    <tripinfo id="emergency0" depart="0.00" departLane="D0D1_0" departPos="6.60" departSpeed="0.00" departDelay="0.00" arrival="43.40" arrivalLane="A1A0_0" arrivalPos="93.60" arrivalSpeed="13.80" duration="43.40" routeLength="489.68" waitingTime="0.00" waitingCount="0" stopTime="0.00" timeLoss="6.79" rerouteNo="0" devices="tripinfo_emergency0" vType="emergency" speedFactor="1.00" vaporized=""/>
    <tripinfo id="passenger6" depart="12.00" departLane="C1C0_0" departPos="5.10" departSpeed="0.00" departDelay="0.00" arrival="49.90" arrivalLane="A0A1_0" arrivalPos="93.60" arrivalSpeed="12.74" duration="37.90" routeLength="375.31" waitingTime="0.00" waitingCount="0" stopTime="0.00" timeLoss="7.38" rerouteNo="0" devices="tripinfo_passenger6" vType="passenger" speedFactor="0.93" vaporized=""/>
    <tripinfo id="passenger9" depart="18.00" departLane="A0B0_0" departPos="5.10" departSpeed="0.00" departDelay="0.00" arrival="51.70" arrivalLane="B0A0_0" arrivalPos="89.60" arrivalSpeed="12.94" duration="33.70" routeLength="178.78" waitingTime="11.70" waitingCount="2" stopTime="0.00" timeLoss="20.51" rerouteNo="0" devices="tripinfo_passenger9" vType="passenger" speedFactor="1.05" vaporized=""/>
    <tripinfo id="passenger5" depart="10.00" departLane="C0D0_0" departPos="5.10" departSpeed="0.00" departDelay="0.00" arrival="53.40" arrivalLane="A0B0_0" arrivalPos="89.60" arrivalSpeed="15.01" duration="43.40" routeLength="477.04" waitingTime="0.00" waitingCount="0" stopTime="0.00" timeLoss="10.01" rerouteNo="0" devices="tripinfo_passenger5" vType="passenger" speedFactor="1.09" vaporized=""/>
    <tripinfo id="passenger11" depart="26.20" departLane="B1B0_0" departPos="5.10" departSpeed="0.00" departDelay="4.20" arrival="54.10" arrivalLane="B0B1_0" arrivalPos="85.60" arrivalSpeed="14.30" duration="27.90" routeLength="170.77" waitingTime="2.90" waitingCount="1" stopTime="0.00" timeLoss="15.13" rerouteNo="0" devices="tripinfo_passenger11" vType="passenger" speedFactor="1.04" vaporized=""/>
    <tripinfo id="passenger19" depart="38.00" departLane="B1C1_0" departPos="5.10" departSpeed="0.00" departDelay="0.00" arrival="56.30" arrivalLane="C1C0_0" arrivalPos="85.60" arrivalSpeed="13.56" duration="18.30" routeLength="175.13" waitingTime="0.00" waitingCount="0" stopTime="0.00" timeLoss="4.66" rerouteNo="0" devices="tripinfo_passenger19" vType="passenger" speedFactor="0.98" vaporized=""/>
    <tripinfo id="passenger1" depart="2.00" departLane="C0C1_0" departPos="5.10" departSpeed="0.00" departDelay="0.00" arrival="58.30" arrivalLane="A0B0_0" arrivalPos="89.60" arrivalSpeed="13.31" duration="56.30" routeLength="472.98" waitingTime="5.30" waitingCount="1" stopTime="0.00" timeLoss="17.34" rerouteNo="0" devices="tripinfo_passenger1" vType="passenger" speedFactor="0.96" vaporized=""/>
    <tripinfo id="passenger14" depart="28.30" departLane="B1A1_0" departPos="5.10" departSpeed="0.00" departDelay="0.30" arrival="62.20" arrivalLane="C1D1_0" arrivalPos="89.60" arrivalSpeed="14.41" duration="33.90" routeLength="382.77" waitingTime="0.00" waitingCount="0" stopTime="0.00" timeLoss="6.41" rerouteNo="0" devices="tripinfo_passenger14" vType="passenger" speedFactor="1.04" vaporized=""/>
    <tripinfo id="passenger8" depart="16.00" departLane="D1C1_0" departPos="5.10" departSpeed="0.00" departDelay="0.00" arrival="69.00" arrivalLane="A0A1_0" arrivalPos="93.60" arrivalSpeed="13.92" duration="53.00" routeLength="479.10" waitingTime="0.00" waitingCount="0" stopTime="0.00" timeLoss="16.58" rerouteNo="0" devices="tripinfo_passenger8" vType="passenger" speedFactor="1.00" vaporized=""/>
    <tripinfo id="passenger22" depart="44.00" departLane="A1B1_0" departPos="5.10" departSpeed="0.00" departDelay="0.00" arrival="72.00" arrivalLane="B0A0_0" arrivalPos="89.60" arrivalSpeed="13.79" duration="28.00" routeLength="277.76" waitingTime="0.00" waitingCount="0" stopTime="0.00" timeLoss="6.61" rerouteNo="0" devices="tripinfo_passenger22" vType="passenger" speedFactor="1.00" vaporized=""/>
    <tripinfo id="passenger12" depart="24.00" departLane="C0D0_0" departPos="5.10" departSpeed="0.00" departDelay="0.00" arrival="73.00" arrivalLane="A0B0_0" arrivalPos="89.60" arrivalSpeed="12.46" duration="49.00" routeLength="477.04" waitingTime="0.00" waitingCount="0" stopTime="0.00" timeLoss="9.00" rerouteNo="0" devices="tripinfo_passenger12" vType="passenger" speedFactor="0.91" vaporized=""/>
    <tripinfo id="passenger13" depart="28.80" departLane="B1B0_0" departPos="5.10" departSpeed="0.00" departDelay="2.80" arrival="74.50" arrivalLane="A1B1_0" arrivalPos="89.60" arrivalSpeed="15.00" duration="45.70" routeLength="367.49" waitingTime="0.00" waitingCount="0" stopTime="0.00" timeLoss="19.70" rerouteNo="0" devices="tripinfo_passenger13" vType="passenger" speedFactor="1.08" vaporized=""/>
    <tripinfo id="passenger17" depart="34.50" departLane="D0D1_0" departPos="5.10" departSpeed="0.00" departDelay="0.50" arrival="75.70" arrivalLane="B1B0_0" arrivalPos="85.60" arrivalSpeed="11.30" duration="41.20" routeLength="385.63" waitingTime="0.00" waitingCount="0" stopTime="0.00" timeLoss="5.53" rerouteNo="0" devices="tripinfo_passenger17" vType="passenger" speedFactor="0.82" vaporized=""/>
    <tripinfo id="passenger23" depart="46.00" departLane="D1D0_0" departPos="5.10" departSpeed="0.00" departDelay="0.00" arrival="77.80" arrivalLane="C0D0_0" arrivalPos="89.60" arrivalSpeed="8.88" duration="31.80" routeLength="274.96" waitingTime="0.00" waitingCount="0" stopTime="0.00" timeLoss="11.03" rerouteNo="0" devices="tripinfo_passenger23" vType="passenger" speedFactor="1.02" vaporized=""/>
    <tripinfo id="passenger18" depart="36.00" departLane="D1C1_0" departPos="5.10" departSpeed="0.00" departDelay="0.00" arrival="80.70" arrivalLane="B0A0_0" arrivalPos="89.60" arrivalSpeed="14.58" duration="44.70" routeLength="382.92" waitingTime="3.90" waitingCount="2" stopTime="0.00" timeLoss="17.07" rerouteNo="0" devices="tripinfo_passenger18" vType="passenger" speedFactor="1.05" vaporized=""/>
    <tripinfo id="passenger16" depart="32.00" departLane="C0B0_0" departPos="5.10" departSpeed="0.00" departDelay="0.00" arrival="82.10" arrivalLane="D1C1_0" arrivalPos="89.60" arrivalSpeed="13.11" duration="50.10" routeLength="468.03" waitingTime="0.00" waitingCount="0" stopTime="0.00" timeLoss="12.10" rerouteNo="1" devices="tripinfo_passenger16" vType="passenger" speedFactor="0.95" vaporized=""/>
    <tripinfo id="passenger20" depart="40.60" departLane="B1C1_0" departPos="5.10" departSpeed="0.00" departDelay="0.60" arrival="82.40" arrivalLane="B0A0_0" arrivalPos="89.60" arrivalSpeed="13.64" duration="41.80" routeLength="369.20" waitingTime="0.00" waitingCount="0" stopTime="0.00" timeLoss="12.30" rerouteNo="0" devices="tripinfo_passenger20" vType="passenger" speedFactor="0.98" vaporized=""/>
    <tripinfo id="passenger21" depart="42.00" departLane="C1C0_0" departPos="5.10" departSpeed="0.00" departDelay="0.00" arrival="84.30" arrivalLane="D1C1_0" arrivalPos="89.60" arrivalSpeed="14.93" duration="42.30" routeLength="363.67" waitingTime="0.00" waitingCount="0" stopTime="0.00" timeLoss="15.56" rerouteNo="0" devices="tripinfo_passenger21" vType="passenger" speedFactor="1.08" vaporized=""/>
    <tripinfo id="passenger30" depart="60.00" departLane="C0B0_0" departPos="5.10" departSpeed="0.00" departDelay="0.00" arrival="86.80" arrivalLane="A0B0_0" arrivalPos="89.60" arrivalSpeed="14.20" duration="26.80" routeLength="278.77" waitingTime="0.00" waitingCount="0" stopTime="0.00" timeLoss="6.20" rerouteNo="0" devices="tripinfo_passenger30" vType="passenger" speedFactor="1.03" vaporized=""/>
    <tripinfo id="passenger24" depart="49.90" departLane="A1A0_0" departPos="5.10" departSpeed="0.00" departDelay="1.90" arrival="87.70" arrivalLane="B1C1_0" arrivalPos="85.60" arrivalSpeed="13.10" duration="37.80" routeLength="378.95" waitingTime="0.00" waitingCount="0" stopTime="0.00" timeLoss="10.54" rerouteNo="0" devices="tripinfo_passenger24" vType="passenger" speedFactor="1.05" vaporized=""/>
    <tripinfo id="passenger26" depart="52.00" departLane="D0D1_0" departPos="5.10" departSpeed="0.00" departDelay="0.00" arrival="90.40" arrivalLane="C0C1_0" arrivalPos="85.60" arrivalSpeed="14.68" duration="38.40" routeLength="373.58" waitingTime="0.00" waitingCount="0" stopTime="0.00" timeLoss="11.06" rerouteNo="0" devices="tripinfo_passenger26" vType="passenger" speedFactor="1.07" vaporized=""/>
    <tripinfo id="passenger32" depart="66.10" departLane="C1C0_0" departPos="5.10" departSpeed="0.00" departDelay="2.10" arrival="93.40" arrivalLane="B0B1_0" arrivalPos="85.60" arrivalSpeed="14.19" duration="27.30" routeLength="269.76" waitingTime="0.00" waitingCount="0" stopTime="0.00" timeLoss="6.89" rerouteNo="0" devices="tripinfo_passenger32" vType="passenger" speedFactor="1.03" vaporized=""/>
    <tripinfo id="passenger28" depart="56.00" departLane="A1A0_0" departPos="5.10" departSpeed="0.00" departDelay="0.00" arrival="96.10" arrivalLane="B1C1_0" arrivalPos="85.60" arrivalSpeed="10.96" duration="40.10" routeLength="378.95" waitingTime="0.00" waitingCount="0" stopTime="0.00" timeLoss="9.38" rerouteNo="0" devices="tripinfo_passenger28" vType="passenger" speedFactor="0.93" vaporized=""/>
    <tripinfo id="passenger25" depart="56.30" departLane="C0C1_0" departPos="5.10" departSpeed="0.00" departDelay="6.30" arrival="97.20" arrivalLane="B0B1_0" arrivalPos="85.60" arrivalSpeed="14.50" duration="40.90" routeLength="370.35" waitingTime="2.30" waitingCount="1" stopTime="0.00" timeLoss="13.02" rerouteNo="0" devices="tripinfo_passenger25" vType="passenger" speedFactor="1.05" vaporized=""/>
    <tripinfo id="passenger38" depart="76.00" departLane="B1C1_0" departPos="5.10" departSpeed="0.00" departDelay="0.00" arrival="103.30" arrivalLane="C0C1_0" arrivalPos="85.60" arrivalSpeed="15.86" duration="27.30" routeLength="265.40" waitingTime="0.00" waitingCount="0" stopTime="0.00" timeLoss="9.08" rerouteNo="0" devices="tripinfo_passenger38" vType="passenger" speedFactor="1.15" vaporized=""/>
    <tripinfo id="passenger34" depart="68.70" departLane="C1C0_0" departPos="5.10" departSpeed="0.00" departDelay="0.70" arrival="113.50" arrivalLane="D1D0_0" arrivalPos="93.60" arrivalSpeed="14.18" duration="44.80" routeLength="365.58" waitingTime="4.00" waitingCount="1" stopTime="0.00" timeLoss="17.09" rerouteNo="0" devices="tripinfo_passenger34" vType="passenger" speedFactor="1.03" vaporized=""/>
    <tripinfo id="passenger35" depart="73.00" departLane="D0D1_0" departPos="5.10" departSpeed="0.00" departDelay="3.00" arrival="114.00" arrivalLane="C1D1_0" arrivalPos="89.60" arrivalSpeed="9.63" duration="41.00" routeLength="280.12" waitingTime="7.70" waitingCount="1" stopTime="0.00" timeLoss="17.54" rerouteNo="0" devices="tripinfo_passenger35" vType="passenger" speedFactor="0.93" vaporized=""/>
    <tripinfo id="passenger33" depart="77.20" departLane="A0A1_0" departPos="5.10" departSpeed="0.00" departDelay="11.20" arrival="116.10" arrivalLane="C1C0_0" arrivalPos="85.60" arrivalSpeed="14.29" duration="38.90" routeLength="375.31" waitingTime="0.00" waitingCount="0" stopTime="0.00" timeLoss="11.56" rerouteNo="0" devices="tripinfo_passenger33" vType="passenger" speedFactor="1.03" vaporized=""/>
    <tripinfo id="passenger45" depart="90.00" departLane="B1A1_0" departPos="5.10" departSpeed="0.00" departDelay="0.00" arrival="117.60" arrivalLane="A0B0_0" arrivalPos="89.60" arrivalSpeed="14.76" duration="27.60" routeLength="283.18" waitingTime="0.00" waitingCount="0" stopTime="0.00" timeLoss="7.07" rerouteNo="0" devices="tripinfo_passenger45" vType="passenger" speedFactor="1.07" vaporized=""/>
    <tripinfo id="emergency3" depart="90.00" departLane="A1A0_0" departPos="6.60" departSpeed="0.00" departDelay="0.00" arrival="118.30" arrivalLane="B0B1_0" arrivalPos="85.60" arrivalSpeed="13.84" duration="28.30" routeLength="284.13" waitingTime="0.00" waitingCount="0" stopTime="0.00" timeLoss="6.36" rerouteNo="0" devices="tripinfo_emergency3" vType="emergency" speedFactor="1.00" vaporized=""/>
    <tripinfo id="passenger36" depart="74.90" departLane="B1A1_0" departPos="5.10" departSpeed="0.00" departDelay="2.90" arrival="118.30" arrivalLane="C1C0_0" arrivalPos="85.60" arrivalSpeed="14.11" duration="43.40" routeLength="373.40" waitingTime="3.00" waitingCount="1" stopTime="0.00" timeLoss="15.53" rerouteNo="0" devices="tripinfo_passenger36" vType="passenger" speedFactor="1.02" vaporized=""/>
    <tripinfo id="emergency2" depart="60.00" departLane="C0D0_0" departPos="6.60" departSpeed="0.00" departDelay="0.00" arrival="119.40" arrivalLane="A1B1_0" arrivalPos="89.60" arrivalSpeed="13.84" duration="59.40" routeLength="569.63" waitingTime="3.20" waitingCount="1" stopTime="0.00" timeLoss="16.60" rerouteNo="0" devices="tripinfo_emergency2" vType="emergency" speedFactor="1.00" vaporized=""/>
    <tripinfo id="passenger40" depart="82.10" departLane="B1C1_0" departPos="5.10" departSpeed="0.00" departDelay="2.10" arrival="120.40" arrivalLane="C1B1_0" arrivalPos="85.60" arrivalSpeed="4.42" duration="38.30" routeLength="170.78" waitingTime="10.20" waitingCount="1" stopTime="0.00" timeLoss="21.69" rerouteNo="0" devices="tripinfo_passenger40" vType="passenger" speedFactor="0.80" vaporized=""/>
    <tripinfo id="passenger48" depart="96.00" departLane="D0C0_0" departPos="5.10" departSpeed="0.00" departDelay="0.00" arrival="122.80" arrivalLane="B0B1_0" arrivalPos="85.60" arrivalSpeed="13.04" duration="26.80" routeLength="279.13" waitingTime="0.00" waitingCount="0" stopTime="0.00" timeLoss="4.72" rerouteNo="0" devices="tripinfo_passenger48" vType="passenger" speedFactor="0.95" vaporized=""/>
    <tripinfo id="passenger43" depart="92.40" departLane="B0B1_0" departPos="5.10" departSpeed="0.00" departDelay="6.40" arrival="123.50" arrivalLane="C1D1_0" arrivalPos="89.60" arrivalSpeed="12.58" duration="31.10" routeLength="279.13" waitingTime="1.10" waitingCount="1" stopTime="0.00" timeLoss="8.07" rerouteNo="0" devices="tripinfo_passenger43" vType="passenger" speedFactor="0.91" vaporized=""/>
    <tripinfo id="passenger42" depart="84.70" departLane="B1B0_0" departPos="5.10" departSpeed="0.00" departDelay="0.70" arrival="125.10" arrivalLane="B1C1_0" arrivalPos="85.60" arrivalSpeed="11.13" duration="40.40" routeLength="265.40" waitingTime="3.00" waitingCount="1" stopTime="0.00" timeLoss="20.32" rerouteNo="1" devices="tripinfo_passenger42" vType="passenger" speedFactor="1.03" vaporized=""/>
    <tripinfo id="passenger49" depart="98.00" departLane="C1D1_0" departPos="5.10" departSpeed="0.00" departDelay="0.00" arrival="127.20" arrivalLane="D0D1_0" arrivalPos="93.60" arrivalSpeed="16.03" duration="29.20" routeLength="278.95" waitingTime="0.00" waitingCount="0" stopTime="0.00" timeLoss="10.63" rerouteNo="0" devices="tripinfo_passenger49" vType="passenger" speedFactor="1.15" vaporized=""/>
    <tripinfo id="passenger29" depart="58.00" departLane="C1D1_0" departPos="5.10" departSpeed="0.00" departDelay="0.00" arrival="128.30" arrivalLane="B1C1_0" arrivalPos="85.60" arrivalSpeed="11.52" duration="70.30" routeLength="369.05" waitingTime="27.60" waitingCount="1" stopTime="0.00" timeLoss="36.21" rerouteNo="0" devices="tripinfo_passenger29" vType="passenger" speedFactor="0.83" vaporized=""/>
    <tripinfo id="passenger39" depart="78.00" departLane="B0A0_0" departPos="5.10" departSpeed="0.00" departDelay="0.00" arrival="128.40" arrivalLane="C1D1_0" arrivalPos="89.60" arrivalSpeed="13.33" duration="50.40" routeLength="477.19" waitingTime="0.00" waitingCount="0" stopTime="0.00" timeLoss="12.12" rerouteNo="1" devices="tripinfo_passenger39" vType="passenger" speedFactor="0.96" vaporized=""/>
    <tripinfo id="passenger47" depart="94.00" departLane="A1B1_0" departPos="5.10" departSpeed="0.00" departDelay="0.00" arrival="130.30" arrivalLane="C0D0_0" arrivalPos="89.60" arrivalSpeed="14.17" duration="36.30" routeLength="382.92" waitingTime="0.00" waitingCount="0" stopTime="0.00" timeLoss="8.06" rerouteNo="0" devices="tripinfo_passenger47" vType="passenger" speedFactor="1.03" vaporized=""/>
    <tripinfo id="passenger31" depart="72.00" departLane="A0A1_0" departPos="5.10" departSpeed="0.00" departDelay="10.00" arrival="132.30" arrivalLane="D0D1_0" arrivalPos="93.60" arrivalSpeed="13.06" duration="60.30" routeLength="579.13" waitingTime="0.00" waitingCount="0" stopTime="0.00" timeLoss="13.95" rerouteNo="0" devices="tripinfo_passenger31" vType="passenger" speedFactor="0.94" vaporized=""/>
    <tripinfo id="passenger53" depart="106.00" departLane="A1A0_0" departPos="5.10" departSpeed="0.00" departDelay="0.00" arrival="136.20" arrivalLane="B0A0_0" arrivalPos="89.60" arrivalSpeed="13.32" duration="30.20" routeLength="280.12" waitingTime="0.00" waitingCount="0" stopTime="0.00" timeLoss="7.51" rerouteNo="0" devices="tripinfo_passenger53" vType="passenger" speedFactor="0.97" vaporized=""/>
    <tripinfo id="passenger37" depart="74.00" departLane="A1A0_0" departPos="5.10" departSpeed="0.00" departDelay="0.00" arrival="137.40" arrivalLane="C0D0_0" arrivalPos="89.60" arrivalSpeed="12.36" duration="63.40" routeLength="578.68" waitingTime="0.00" waitingCount="0" stopTime="0.00" timeLoss="12.66" rerouteNo="1" devices="tripinfo_passenger37" vType="passenger" speedFactor="0.89" vaporized=""/>
    <tripinfo id="passenger59" depart="118.00" departLane="B0A0_0" departPos="5.10" departSpeed="0.00" departDelay="0.00" arrival="137.40" arrivalLane="A0A1_0" arrivalPos="93.60" arrivalSpeed="14.23" duration="19.40" routeLength="180.68" waitingTime="0.00" waitingCount="0" stopTime="0.00" timeLoss="6.28" rerouteNo="0" devices="tripinfo_passenger59" vType="passenger" speedFactor="1.03" vaporized=""/>
    <tripinfo id="passenger46" depart="94.40" departLane="B1C1_0" departPos="5.10" departSpeed="0.00" departDelay="2.40" arrival="143.50" arrivalLane="A1A0_0" arrivalPos="93.60" arrivalSpeed="12.27" duration="49.10" routeLength="376.12" waitingTime="0.00" waitingCount="0" stopTime="0.00" timeLoss="16.62" rerouteNo="0" devices="tripinfo_passenger46" vType="passenger" speedFactor="0.89" vaporized=""/>
    <tripinfo id="passenger54" depart="108.00" departLane="C0C1_0" departPos="5.10" departSpeed="0.00" departDelay="0.00" arrival="145.20" arrivalLane="C0B0_0" arrivalPos="85.60" arrivalSpeed="12.78" duration="37.20" routeLength="265.40" waitingTime="6.10" waitingCount="1" stopTime="0.00" timeLoss="14.69" rerouteNo="0" devices="tripinfo_passenger54" vType="passenger" speedFactor="0.92" vaporized=""/>
    <tripinfo id="passenger58" depart="116.10" departLane="C0B0_0" departPos="5.10" departSpeed="0.00" departDelay="0.10" arrival="145.20" arrivalLane="B1A1_0" arrivalPos="89.60" arrivalSpeed="12.78" duration="29.10" routeLength="278.92" waitingTime="0.00" waitingCount="0" stopTime="0.00" timeLoss="5.82" rerouteNo="0" devices="tripinfo_passenger58" vType="passenger" speedFactor="0.93" vaporized=""/>
    <tripinfo id="passenger56" depart="113.40" departLane="A1B1_0" departPos="5.10" departSpeed="0.00" departDelay="1.40" arrival="145.70" arrivalLane="A1A0_0" arrivalPos="93.60" arrivalSpeed="14.72" duration="32.30" routeLength="280.12" waitingTime="1.50" waitingCount="1" stopTime="0.00" timeLoss="11.85" rerouteNo="0" devices="tripinfo_passenger56" vType="passenger" speedFactor="1.07" vaporized=""/>
    <tripinfo id="passenger57" depart="118.30" departLane="C0C1_0" departPos="5.10" departSpeed="0.00" departDelay="4.30" arrival="149.70" arrivalLane="D1D0_0" arrivalPos="93.60" arrivalSpeed="12.26" duration="31.40" routeLength="275.31" waitingTime="0.00" waitingCount="0" stopTime="0.00" timeLoss="7.50" rerouteNo="0" devices="tripinfo_passenger57" vType="passenger" speedFactor="0.88" vaporized=""/>
    <tripinfo id="passenger50" depart="100.30" departLane="C1B1_0" departPos="5.10" departSpeed="0.00" departDelay="0.30" arrival="149.80" arrivalLane="A0A1_0" arrivalPos="93.60" arrivalSpeed="14.83" duration="49.50" routeLength="375.10" waitingTime="4.70" waitingCount="1" stopTime="0.00" timeLoss="22.53" rerouteNo="0" devices="tripinfo_passenger50" vType="passenger" speedFactor="1.08" vaporized=""/>
    <tripinfo id="passenger41" depart="82.00" departLane="B1B0_0" departPos="5.10" departSpeed="0.00" departDelay="0.00" arrival="152.60" arrivalLane="D0D1_0" arrivalPos="93.60" arrivalSpeed="12.63" duration="70.60" routeLength="565.16" waitingTime="8.30" waitingCount="1" stopTime="0.00" timeLoss="21.97" rerouteNo="1" devices="tripinfo_passenger41" vType="passenger" speedFactor="0.92" vaporized=""/>
    <tripinfo id="passenger51" depart="109.90" departLane="C1B1_0" departPos="5.10" departSpeed="0.00" departDelay="7.90" arrival="152.70" arrivalLane="D1D0_0" arrivalPos="93.60" arrivalSpeed="14.67" duration="42.80" routeLength="370.96" waitingTime="0.00" waitingCount="0" stopTime="0.00" timeLoss="16.23" rerouteNo="0" devices="tripinfo_passenger51" vType="passenger" speedFactor="1.06" vaporized=""/>
    <tripinfo id="passenger63" depart="126.90" departLane="C0B0_0" departPos="5.10" departSpeed="0.00" departDelay="0.90" arrival="153.60" arrivalLane="B1C1_0" arrivalPos="85.60" arrivalSpeed="14.95" duration="26.70" routeLength="269.76" waitingTime="0.00" waitingCount="0" stopTime="0.00" timeLoss="7.39" rerouteNo="0" devices="tripinfo_passenger63" vType="passenger" speedFactor="1.08" vaporized=""/>
    <tripinfo id="passenger62" depart="125.50" departLane="B1B0_0" departPos="5.10" departSpeed="0.00" departDelay="1.50" arrival="153.70" arrivalLane="A0B0_0" arrivalPos="89.60" arrivalSpeed="16.08" duration="28.20" routeLength="273.40" waitingTime="0.00" waitingCount="0" stopTime="0.00" timeLoss="9.62" rerouteNo="0" devices="tripinfo_passenger62" vType="passenger" speedFactor="1.16" vaporized=""/>
    <tripinfo id="passenger66" depart="132.00" departLane="D0D1_0" departPos="5.10" departSpeed="0.00" departDelay="0.00" arrival="155.50" arrivalLane="D1D0_0" arrivalPos="93.60" arrivalSpeed="13.94" duration="23.50" routeLength="186.77" waitingTime="1.60" waitingCount="1" stopTime="0.00" timeLoss="9.14" rerouteNo="0" devices="tripinfo_passenger66" vType="passenger" speedFactor="1.00" vaporized=""/>
    <tripinfo id="passenger76" depart="152.90" departLane="C0D0_0" departPos="5.10" departSpeed="0.00" departDelay="0.90" arrival="162.40" arrivalLane="C0D0_0" arrivalPos="89.60" arrivalSpeed="13.70" duration="9.50" routeLength="84.50" waitingTime="0.00" waitingCount="0" stopTime="0.00" timeLoss="3.33" rerouteNo="0" devices="tripinfo_passenger76" vType="passenger" speedFactor="0.99" vaporized=""/>
    <tripinfo id="passenger64" depart="128.00" departLane="C0C1_0" departPos="5.10" departSpeed="0.00" departDelay="0.00" arrival="165.70" arrivalLane="B1B0_0" arrivalPos="85.60" arrivalSpeed="5.01" duration="37.70" routeLength="280.08" waitingTime="0.00" waitingCount="0" stopTime="0.00" timeLoss="14.52" rerouteNo="0" devices="tripinfo_passenger64" vType="passenger" speedFactor="0.93" vaporized=""/>
    <tripinfo id="passenger61" depart="122.00" departLane="A0B0_0" departPos="5.10" departSpeed="0.00" departDelay="0.00" arrival="166.30" arrivalLane="C0B0_0" arrivalPos="85.60" arrivalSpeed="15.29" duration="44.30" routeLength="468.18" waitingTime="0.00" waitingCount="0" stopTime="0.00" timeLoss="11.04" rerouteNo="1" devices="tripinfo_passenger61" vType="passenger" speedFactor="1.10" vaporized=""/>
    <tripinfo id="passenger65" depart="130.00" departLane="C1B1_0" departPos="5.10" departSpeed="0.00" departDelay="0.00" arrival="167.20" arrivalLane="A0A1_0" arrivalPos="93.60" arrivalSpeed="14.34" duration="37.20" routeLength="375.10" waitingTime="0.00" waitingCount="0" stopTime="0.00" timeLoss="9.33" rerouteNo="0" devices="tripinfo_passenger65" vType="passenger" speedFactor="1.04" vaporized=""/>
    <tripinfo id="passenger71" depart="142.00" departLane="C1D1_0" departPos="5.10" departSpeed="0.00" departDelay="0.00" arrival="170.40" arrivalLane="C1C0_0" arrivalPos="85.60" arrivalSpeed="14.78" duration="28.40" routeLength="278.56" waitingTime="0.00" waitingCount="0" stopTime="0.00" timeLoss="8.02" rerouteNo="0" devices="tripinfo_passenger71" vType="passenger" speedFactor="1.07" vaporized=""/>
    <tripinfo id="passenger55" depart="110.00" departLane="C0B0_0" departPos="5.10" departSpeed="0.00" departDelay="0.00" arrival="175.30" arrivalLane="D0D1_0" arrivalPos="93.60" arrivalSpeed="12.10" duration="65.30" routeLength="569.52" waitingTime="1.90" waitingCount="1" stopTime="0.00" timeLoss="14.12" rerouteNo="1" devices="tripinfo_passenger55" vType="passenger" speedFactor="0.87" vaporized=""/>
    <tripinfo id="passenger69" depart="138.00" departLane="C0C1_0" departPos="5.10" departSpeed="0.00" departDelay="0.00" arrival="180.10" arrivalLane="A1B1_0" arrivalPos="89.60" arrivalSpeed="11.14" duration="42.10" routeLength="378.56" waitingTime="0.00" waitingCount="0" stopTime="0.00" timeLoss="6.20" rerouteNo="0" devices="tripinfo_passenger69" vType="passenger" speedFactor="0.81" vaporized=""/>
    <tripinfo id="passenger68" depart="136.00" departLane="C0D0_0" departPos="5.10" departSpeed="0.00" departDelay="0.00" arrival="180.10" arrivalLane="C1D1_0" arrivalPos="89.60" arrivalSpeed="12.40" duration="44.10" routeLength="372.03" waitingTime="1.10" waitingCount="1" stopTime="0.00" timeLoss="11.68" rerouteNo="0" devices="tripinfo_passenger68" vType="passenger" speedFactor="0.90" vaporized=""/>
    <tripinfo id="passenger70" depart="140.00" departLane="D0C0_0" departPos="5.10" departSpeed="0.00" departDelay="0.00" arrival="182.80" arrivalLane="B1C1_0" arrivalPos="85.60" arrivalSpeed="12.14" duration="42.80" routeLength="373.76" waitingTime="2.60" waitingCount="1" stopTime="0.00" timeLoss="10.48" rerouteNo="0" devices="tripinfo_passenger70" vType="passenger" speedFactor="0.88" vaporized=""/>
    <tripinfo id="passenger60" depart="121.60" departLane="C0C1_0" departPos="5.10" departSpeed="0.00" departDelay="1.60" arrival="185.40" arrivalLane="A0A1_0" arrivalPos="93.60" arrivalSpeed="11.36" duration="63.80" routeLength="474.89" waitingTime="6.20" waitingCount="2" stopTime="0.00" timeLoss="18.71" rerouteNo="0" devices="tripinfo_passenger60" vType="passenger" speedFactor="0.82" vaporized=""/>
    <tripinfo id="passenger67" depart="134.00" departLane="D1D0_0" departPos="5.10" departSpeed="0.00" departDelay="0.00" arrival="187.20" arrivalLane="A1B1_0" arrivalPos="89.60" arrivalSpeed="15.95" duration="53.20" routeLength="573.04" waitingTime="0.00" waitingCount="0" stopTime="0.00" timeLoss="16.34" rerouteNo="0" devices="tripinfo_passenger67" vType="passenger" speedFactor="1.15" vaporized=""/>