<?xml version="1.0" encoding="UTF-8"?>

<!-- generated on Mon May  3 15:41:21 2021 by Eclipse SUMO Version 1.1.0
<configuration xmlns:xsi="http://www.w3.org/2001/XMLSchema-instance" xsi:noNamespaceSchemaLocation="http://sumo.dlr.de/xsd/sumoConfiguration.xsd">

    <input>
        <net-file value="contrib/ndn4ivc/traces/square-map/map.net.xml"/>
        <route-files value="contrib/ndn4ivc/traces/square-map/passenger_routes.rou.xml,contrib/ndn4ivc/traces/square-map/emergency_routes.rou.xml,contrib/ndn4ivc/traces/square-map/passenger_accident.xml"/>
    </input>

    <output>
        <emission-output value="contrib/ndn4ivc/traces/square-map/sumo-output.emission.xml"/>
        <tripinfo-output value="contrib/ndn4ivc/traces/square-map/sumo-output.tripinfo.xml"/>
    </output>

    <time>
        <begin value="0"/>
        <end value="3600"/>
        <step-length value="0.100000"/>
    </time>

    <report>
        <verbose value="true"/>
        <error-log value="contrib/ndn4ivc/traces/square-map/SumoError.log"/>
        <no-step-log value="true"/>
    </report>

    <traci_server>
        <remote-port value="3418"/>
    </traci_server>

    <random_number>
        <seed value="10"/>
    </random_number>

    <gui_only>
        <gui-settings-file value="contrib/ndn4ivc/traces/square-map/settings.xml"/>
        <quit-on-end value="true"/>
        <start value="true"/>
        <tracker-interval value="0.1"/>
    </gui_only>

</configuration>
-->

<tripinfos xmlns:xsi="http://www.w3.org/2001/XMLSchema-instance" xsi:noNamespaceSchemaLocation="http://sumo.dlr.de/xsd/tripinfo_file.xsd">
    <tripinfo id="passenger3" depart="6.00" departLane="C0C1_0" departPos="5.10" departSpeed="0.00" departDelay="0.00" arrival="15.20" arrivalLane="C0C1_0" arrivalPos="85.60" arrivalSpeed="13.81" duration="9.20" routeLength="80.50" waitingTime="0.00" waitingCount="0" stopTime="0.00" timeLoss="3.38" rerouteNo="0" devices="tripinfo_passenger3" vType="passenger" speedFactor="1.00" vaporized=""/>
    <tripinfo id="passenger1" depart="2.00" departLane="C0B0_0" departPos="5.10" departSpeed="0.00" departDelay="0.00" arrival="20.50" arrivalLane="B0B1_0" arrivalPos="85.60" arrivalSpeed="13.22" duration="18.50" routeLength="175.13" waitingTime="0.00" waitingCount="0" stopTime="0.00" timeLoss="4.52" rerouteNo="0" devices="tripinfo_passenger1" vType="passenger" speedFactor="0.96" vaporized=""/>
    <tripinfo id="passenger0" depart="0.00" departLane="A1A0_0" departPos="5.10" departSpeed="0.00" departDelay="0.00" arrival="23.40" arrivalLane="A0A1_0" arrivalPos="93.60" arrivalSpeed="11.41" duration="23.40" routeLength="186.77" waitingTime="0.70" waitingCount="1" stopTime="0.00" timeLoss="10.31" rerouteNo="0" devices="tripinfo_passenger0" vType="passenger" speedFactor="1.10" vaporized=""/>
    <tripinfo id="emergency0" depart="0.00" departLane="B0A0_0" departPos="6.60" departSpeed="0.00" departDelay="0.00" arrival="29.20" arrivalLane="A1B1_0" arrivalPos="89.60" arrivalSpeed="13.83" duration="29.20" routeLength="271.36" waitingTime="0.00" waitingCount="0" stopTime="0.00" timeLoss="8.74" rerouteNo="0" devices="tripinfo_emergency0" vType="emergency" speedFactor="1.00" vaporized=""/>
    <tripinfo id="passenger14" depart="28.00" departLane="A1B1_0" departPos="5.10" departSpeed="0.00" departDelay="0.00" arrival="44.40" arrivalLane="B1C1_0" arrivalPos="85.60" arrivalSpeed="14.44" duration="16.40" routeLength="184.50" waitingTime="0.00" waitingCount="0" stopTime="0.00" timeLoss="3.56" rerouteNo="0" devices="tripinfo_passenger14" vType="passenger" speedFactor="1.04" vaporized=""/>
    <tripinfo id="passenger13" depart="26.00" departLane="B1A1_0" departPos="5.10" departSpeed="0.00" departDelay="0.00" arrival="45.50" arrivalLane="A1B1_0" arrivalPos="89.60" arrivalSpeed="14.94" duration="19.50" routeLength="178.77" waitingTime="0.00" waitingCount="0" stopTime="0.00" timeLoss="6.72" rerouteNo="0" devices="tripinfo_passenger13" vType="passenger" speedFactor="1.08" vaporized=""/>
    <tripinfo id="passenger4" depart="8.00" departLane="D0C0_0" departPos="5.10" departSpeed="0.00" departDelay="0.00" arrival="48.30" arrivalLane="A0B0_0" arrivalPos="89.60" arrivalSpeed="12.61" duration="40.30" routeLength="382.77" waitingTime="0.00" waitingCount="0" stopTime="0.00" timeLoss="8.93" rerouteNo="0" devices="tripinfo_passenger4" vType="passenger" speedFactor="0.91" vaporized=""/>
    <tripinfo id="passenger5" depart="14.70" departLane="B0B1_0" departPos="5.10" departSpeed="0.00" departDelay="4.70" arrival="59.20" arrivalLane="D0C0_0" arrivalPos="89.60" arrivalSpeed="15.03" duration="44.50" routeLength="467.49" waitingTime="0.00" waitingCount="0" stopTime="0.00" timeLoss="11.98" rerouteNo="0" devices="tripinfo_passenger5" vType="passenger" speedFactor="1.09" vaporized=""/>
    <tripinfo id="passenger20" depart="40.50" departLane="D0C0_0" departPos="5.10" departSpeed="0.00" departDelay="0.50" arrival="68.80" arrivalLane="B0B1_0" arrivalPos="85.60" arrivalSpeed="13.65" duration="28.30" routeLength="279.13" waitingTime="0.00" waitingCount="0" stopTime="0.00" timeLoss="7.14" rerouteNo="0" devices="tripinfo_passenger20" vType="passenger" speedFactor="0.98" vaporized=""/>
    <tripinfo id="passenger19" depart="38.00" departLane="D0C0_0" departPos="5.10" departSpeed="0.00" departDelay="0.00" arrival="69.10" arrivalLane="B0A0_0" arrivalPos="89.60" arrivalSpeed="7.58" duration="31.10" routeLength="288.50" waitingTime="0.00" waitingCount="0" stopTime="0.00" timeLoss="9.84" rerouteNo="0" devices="tripinfo_passenger19" vType="passenger" speedFactor="0.98" vaporized=""/>
    <tripinfo id="passenger9" depart="18.00" departLane="C1D1_0" departPos="5.10" departSpeed="0.00" departDelay="0.00" arrival="70.00" arrivalLane="C0D0_0" arrivalPos="89.60" arrivalSpeed="6.14" duration="52.00" routeLength="382.35" waitingTime="4.90" waitingCount="2" stopTime="0.00" timeLoss="23.57" rerouteNo="0" devices="tripinfo_passenger9" vType="passenger" speedFactor="1.05" vaporized=""/>
    <tripinfo id="passenger6" depart="12.00" departLane="B1A1_0" departPos="5.10" departSpeed="0.00" departDelay="0.00" arrival="70.30" arrivalLane="D0D1_0" arrivalPos="93.60" arrivalSpeed="12.76" duration="58.30" routeLength="577.22" waitingTime="0.00" waitingCount="0" stopTime="0.00" timeLoss="10.92" rerouteNo="0" devices="tripinfo_passenger6" vType="passenger" speedFactor="0.93" vaporized=""/>
    <tripinfo id="passenger25" depart="52.80" departLane="C0C1_0" departPos="5.10" departSpeed="0.00" departDelay="2.80" arrival="70.90" arrivalLane="C1B1_0" arrivalPos="85.60" arrivalSpeed="14.46" duration="18.10" routeLength="180.29" waitingTime="0.00" waitingCount="0" stopTime="0.00" timeLoss="4.92" rerouteNo="0" devices="tripinfo_passenger25" vType="passenger" speedFactor="1.05" vaporized=""/>
    <tripinfo id="passenger15" depart="30.60" departLane="A0A1_0" departPos="5.10" departSpeed="0.00" departDelay="0.60" arrival="74.50" arrivalLane="C0C1_0" arrivalPos="85.60" arrivalSpeed="15.43" duration="43.90" routeLength="465.58" waitingTime="0.00" waitingCount="0" stopTime="0.00" timeLoss="11.85" rerouteNo="0" devices="tripinfo_passenger15" vType="passenger" speedFactor="1.11" vaporized=""/>
    <tripinfo id="emergency1" depart="30.00" departLane="D0C0_0" departPos="6.60" departSpeed="0.00" departDelay="0.00" arrival="75.70" arrivalLane="A0B0_0" arrivalPos="89.60" arrivalSpeed="13.84" duration="45.70" routeLength="381.27" waitingTime="2.00" waitingCount="1" stopTime="0.00" timeLoss="17.23" rerouteNo="0" devices="tripinfo_emergency1" vType="emergency" speedFactor="1.00" vaporized=""/>
    <tripinfo id="passenger16" depart="32.00" departLane="D0D1_0" departPos="5.10" departSpeed="0.00" departDelay="0.00" arrival="80.60" arrivalLane="B0B1_0" arrivalPos="85.60" arrivalSpeed="13.18" duration="48.60" routeLength="473.58" waitingTime="0.00" waitingCount="0" stopTime="0.00" timeLoss="10.37" rerouteNo="0" devices="tripinfo_passenger16" vType="passenger" speedFactor="0.95" vaporized=""/>
    <tripinfo id="passenger36" depart="72.00" departLane="B0A0_0" departPos="5.10" departSpeed="0.00" departDelay="0.00" arrival="81.50" arrivalLane="B0A0_0" arrivalPos="89.60" arrivalSpeed="14.15" duration="9.50" routeLength="84.50" waitingTime="0.00" waitingCount="0" stopTime="0.00" timeLoss="3.50" rerouteNo="0" devices="tripinfo_passenger36" vType="passenger" speedFactor="1.02" vaporized=""/>
    <tripinfo id="passenger26" depart="52.00" departLane="B0A0_0" departPos="5.10" departSpeed="0.00" departDelay="0.00" arrival="81.50" arrivalLane="A1A0_0" arrivalPos="93.60" arrivalSpeed="14.68" duration="29.50" routeLength="278.95" waitingTime="0.00" waitingCount="0" stopTime="0.00" timeLoss="9.34" rerouteNo="0" devices="tripinfo_passenger26" vType="passenger" speedFactor="1.07" vaporized=""/>
    <tripinfo id="passenger29" depart="60.80" departLane="B0A0_0" departPos="5.10" departSpeed="0.00" departDelay="2.80" arrival="82.30" arrivalLane="A0A1_0" arrivalPos="93.60" arrivalSpeed="11.46" duration="21.50" routeLength="180.68" waitingTime="0.00" waitingCount="0" stopTime="0.00" timeLoss="5.25" rerouteNo="0" devices="tripinfo_passenger29" vType="passenger" speedFactor="0.83" vaporized=""/>
    <tripinfo id="passenger18" depart="36.00" departLane="D1D0_0" departPos="5.10" departSpeed="0.00" departDelay="0.00" arrival="84.00" arrivalLane="A0A1_0" arrivalPos="93.60" arrivalSpeed="14.56" duration="48.00" routeLength="480.86" waitingTime="0.00" waitingCount="0" stopTime="0.00" timeLoss="14.28" rerouteNo="0" devices="tripinfo_passenger18" vType="passenger" speedFactor="1.05" vaporized=""/>
    <tripinfo id="passenger23" depart="46.00" departLane="C1B1_0" departPos="5.10" departSpeed="0.00" departDelay="0.00" arrival="88.90" arrivalLane="C0C1_0" arrivalPos="85.60" arrivalSpeed="14.02" duration="42.90" routeLength="355.68" waitingTime="2.60" waitingCount="1" stopTime="0.00" timeLoss="15.16" rerouteNo="0" devices="tripinfo_passenger23" vType="passenger" speedFactor="1.02" vaporized=""/>
    <tripinfo id="passenger27" depart="54.00" departLane="D1D0_0" departPos="5.10" departSpeed="0.00" departDelay="0.00" arrival="96.80" arrivalLane="C1B1_0" arrivalPos="85.60" arrivalSpeed="11.27" duration="42.80" routeLength="375.10" waitingTime="0.00" waitingCount="0" stopTime="0.00" timeLoss="7.18" rerouteNo="0" devices="tripinfo_passenger27" vType="passenger" speedFactor="0.81" vaporized=""/>
    <tripinfo id="passenger42" depart="88.90" departLane="D0C0_0" departPos="5.10" departSpeed="0.00" departDelay="4.90" arrival="98.40" arrivalLane="D0C0_0" arrivalPos="89.60" arrivalSpeed="14.25" duration="9.50" routeLength="84.50" waitingTime="0.00" waitingCount="0" stopTime="0.00" timeLoss="3.60" rerouteNo="0" devices="tripinfo_passenger42" vType="passenger" speedFactor="1.03" vaporized=""/>
    <tripinfo id="passenger31" depart="62.00" departLane="A1B1_0" departPos="5.10" departSpeed="0.00" departDelay="0.00" arrival="99.40" arrivalLane="C1B1_0" arrivalPos="85.60" arrivalSpeed="13.03" duration="37.40" routeLength="274.78" waitingTime="8.20" waitingCount="1" stopTime="0.00" timeLoss="15.27" rerouteNo="0" devices="tripinfo_passenger31" vType="passenger" speedFactor="0.94" vaporized=""/>
    <tripinfo id="passenger28" depart="57.10" departLane="C0B0_0" departPos="5.10" departSpeed="0.00" departDelay="1.10" arrival="104.00" arrivalLane="C1B1_0" arrivalPos="85.60" arrivalSpeed="12.86" duration="46.90" routeLength="360.04" waitingTime="0.00" waitingCount="0" stopTime="0.00" timeLoss="16.47" rerouteNo="1" devices="tripinfo_passenger28" vType="passenger" speedFactor="0.93" vaporized=""/>
    <tripinfo id="passenger21" depart="42.00" departLane="C0D0_0" departPos="5.10" departSpeed="0.00" departDelay="0.00" arrival="106.80" arrivalLane="A1A0_0" arrivalPos="93.60" arrivalSpeed="14.91" duration="64.80" routeLength="577.22" waitingTime="0.00" waitingCount="0" stopTime="0.00" timeLoss="24.25" rerouteNo="0" devices="tripinfo_passenger21" vType="passenger" speedFactor="1.08" vaporized=""/>
    <tripinfo id="passenger40" depart="85.40" departLane="C0C1_0" departPos="5.10" departSpeed="0.00" departDelay="5.40" arrival="107.00" arrivalLane="C1C0_0" arrivalPos="85.60" arrivalSpeed="11.09" duration="21.60" routeLength="170.77" waitingTime="0.00" waitingCount="0" stopTime="0.00" timeLoss="5.00" rerouteNo="0" devices="tripinfo_passenger40" vType="passenger" speedFactor="0.80" vaporized=""/>
    <tripinfo id="passenger17" depart="34.00" departLane="C0D0_0" departPos="5.10" departSpeed="0.00" departDelay="0.00" arrival="108.80" arrivalLane="B1A1_0" arrivalPos="89.60" arrivalSpeed="4.52" duration="74.80" routeLength="477.19" waitingTime="12.40" waitingCount="3" stopTime="0.00" timeLoss="29.90" rerouteNo="0" devices="tripinfo_passenger17" vType="passenger" speedFactor="0.82" vaporized=""/>
    <tripinfo id="passenger32" depart="64.00" departLane="B0B1_0" departPos="5.10" departSpeed="0.00" departDelay="0.00" arrival="110.00" arrivalLane="C0B0_0" arrivalPos="85.60" arrivalSpeed="14.19" duration="46.00" routeLength="364.39" waitingTime="2.40" waitingCount="1" stopTime="0.00" timeLoss="18.27" rerouteNo="0" devices="tripinfo_passenger32" vType="passenger" speedFactor="1.03" vaporized=""/>
    <tripinfo id="passenger45" depart="91.40" departLane="C1D1_0" departPos="5.10" departSpeed="0.00" departDelay="1.40" arrival="111.00" arrivalLane="D1C1_0" arrivalPos="89.60" arrivalSpeed="14.73" duration="19.60" routeLength="178.77" waitingTime="0.00" waitingCount="0" stopTime="0.00" timeLoss="6.57" rerouteNo="0" devices="tripinfo_passenger45" vType="passenger" speedFactor="1.07" vaporized=""/>
    <tripinfo id="passenger49" depart="103.80" departLane="A0B0_0" departPos="5.10" departSpeed="0.00" departDelay="5.80" arrival="113.00" arrivalLane="A0B0_0" arrivalPos="89.60" arrivalSpeed="15.99" duration="9.20" routeLength="84.50" waitingTime="0.00" waitingCount="0" stopTime="0.00" timeLoss="3.89" rerouteNo="0" devices="tripinfo_passenger49" vType="passenger" speedFactor="1.15" vaporized=""/>
    <tripinfo id="passenger24" depart="50.70" departLane="C0D0_0" departPos="5.10" departSpeed="0.00" departDelay="2.70" arrival="113.20" arrivalLane="A1B1_0" arrivalPos="89.60" arrivalSpeed="14.55" duration="62.50" routeLength="571.13" waitingTime="4.00" waitingCount="1" stopTime="0.00" timeLoss="21.72" rerouteNo="0" devices="tripinfo_passenger24" vType="passenger" speedFactor="1.05" vaporized=""/>
    <tripinfo id="passenger30" depart="61.90" departLane="C1D1_0" departPos="5.10" departSpeed="0.00" departDelay="1.90" arrival="116.00" arrivalLane="A1B1_0" arrivalPos="89.60" arrivalSpeed="14.20" duration="54.10" routeLength="477.04" waitingTime="8.00" waitingCount="1" stopTime="0.00" timeLoss="18.78" rerouteNo="0" devices="tripinfo_passenger30" vType="passenger" speedFactor="1.03" vaporized=""/>
    <tripinfo id="passenger39" depart="78.00" departLane="A1A0_0" departPos="5.10" departSpeed="0.00" departDelay="0.00" arrival="117.20" arrivalLane="B1C1_0" arrivalPos="85.60" arrivalSpeed="13.24" duration="39.20" routeLength="378.95" waitingTime="0.00" waitingCount="0" stopTime="0.00" timeLoss="9.37" rerouteNo="0" devices="tripinfo_passenger39" vType="passenger" speedFactor="0.96" vaporized=""/>
    <tripinfo id="passenger33" depart="68.70" departLane="C1C0_0" departPos="5.10" departSpeed="0.00" departDelay="2.70" arrival="119.20" arrivalLane="D1C1_0" arrivalPos="89.60" arrivalSpeed="14.27" duration="50.50" routeLength="363.67" waitingTime="3.80" waitingCount="1" stopTime="0.00" timeLoss="22.57" rerouteNo="0" devices="tripinfo_passenger33" vType="passenger" speedFactor="1.03" vaporized=""/>
    <tripinfo id="passenger37" depart="79.50" departLane="A1B1_0" departPos="5.10" departSpeed="0.00" departDelay="5.50" arrival="119.90" arrivalLane="C0C1_0" arrivalPos="85.60" arrivalSpeed="12.42" duration="40.40" routeLength="369.40" waitingTime="0.00" waitingCount="0" stopTime="0.00" timeLoss="8.68" rerouteNo="0" devices="tripinfo_passenger37" vType="passenger" speedFactor="0.89" vaporized=""/>
    <tripinfo id="passenger38" depart="76.00" departLane="D1D0_0" departPos="5.10" departSpeed="0.00" departDelay="0.00" arrival="120.30" arrivalLane="C1B1_0" arrivalPos="85.60" arrivalSpeed="4.78" duration="44.30" routeLength="375.10" waitingTime="0.80" waitingCount="1" stopTime="0.00" timeLoss="19.09" rerouteNo="0" devices="tripinfo_passenger38" vType="passenger" speedFactor="1.15" vaporized=""/>
    <tripinfo id="passenger43" depart="86.00" departLane="D1D0_0" departPos="5.10" departSpeed="0.00" departDelay="0.00" arrival="122.10" arrivalLane="D1C1_0" arrivalPos="89.60" arrivalSpeed="12.52" duration="36.10" routeLength="284.11" waitingTime="0.00" waitingCount="0" stopTime="0.00" timeLoss="11.59" rerouteNo="0" devices="tripinfo_passenger43" vType="passenger" speedFactor="0.91" vaporized=""/>
    <tripinfo id="passenger34" depart="71.80" departLane="A0B0_0" departPos="5.10" departSpeed="0.00" departDelay="3.80" arrival="127.00" arrivalLane="D1D0_0" arrivalPos="93.60" arrivalSpeed="8.54" duration="55.20" routeLength="479.10" waitingTime="0.00" waitingCount="0" stopTime="0.00" timeLoss="19.54" rerouteNo="1" devices="tripinfo_passenger34" vType="passenger" speedFactor="1.03" vaporized=""/>
    <tripinfo id="emergency3" depart="90.00" departLane="B0A0_0" departPos="6.60" departSpeed="0.00" departDelay="0.00" arrival="128.60" arrivalLane="B1A1_0" arrivalPos="89.60" arrivalSpeed="13.86" duration="38.60" routeLength="380.85" waitingTime="0.00" waitingCount="0" stopTime="0.00" timeLoss="8.71" rerouteNo="0" devices="tripinfo_emergency3" vType="emergency" speedFactor="1.00" vaporized=""/>
    <tripinfo id="passenger44" depart="88.00" departLane="C0B0_0" departPos="5.10" departSpeed="0.00" departDelay="0.00" arrival="129.00" arrivalLane="A1B1_0" arrivalPos="89.60" arrivalSpeed="11.46" duration="41.00" routeLength="372.86" waitingTime="0.00" waitingCount="0" stopTime="0.00" timeLoss="7.52" rerouteNo="0" devices="tripinfo_passenger44" vType="passenger" speedFactor="0.83" vaporized=""/>
    <tripinfo id="passenger41" depart="82.00" departLane="D0D1_0" departPos="5.10" departSpeed="0.00" departDelay="0.00" arrival="129.50" arrivalLane="B1C1_0" arrivalPos="85.60" arrivalSpeed="9.45" duration="47.50" routeLength="376.12" waitingTime="6.00" waitingCount="1" stopTime="0.00" timeLoss="16.14" rerouteNo="0" devices="tripinfo_passenger41" vType="passenger" speedFactor="0.92" vaporized=""/>
    <tripinfo id="passenger56" depart="112.00" departLane="A0A1_0" departPos="5.10" departSpeed="0.00" departDelay="0.00" arrival="131.80" arrivalLane="A1B1_0" arrivalPos="89.60" arrivalSpeed="14.80" duration="19.80" routeLength="180.68" waitingTime="0.00" waitingCount="0" stopTime="0.00" timeLoss="7.12" rerouteNo="0" devices="tripinfo_passenger56" vType="passenger" speedFactor="1.07" vaporized=""/>
    <tripinfo id="passenger35" depart="86.10" departLane="B0B1_0" departPos="5.10" departSpeed="0.00" departDelay="16.10" arrival="132.40" arrivalLane="D1C1_0" arrivalPos="89.60" arrivalSpeed="12.84" duration="46.30" routeLength="373.40" waitingTime="2.90" waitingCount="1" stopTime="0.00" timeLoss="15.45" rerouteNo="0" devices="tripinfo_passenger35" vType="passenger" speedFactor="0.93" vaporized=""/>
    <tripinfo id="emergency2" depart="66.00" departLane="A0A1_0" departPos="6.60" departSpeed="0.00" departDelay="6.00" arrival="133.80" arrivalLane="D0D1_0" arrivalPos="93.60" arrivalSpeed="13.81" duration="67.80" routeLength="577.63" waitingTime="0.00" waitingCount="0" stopTime="0.00" timeLoss="24.39" rerouteNo="0" devices="tripinfo_emergency2" vType="emergency" speedFactor="1.00" vaporized=""/>
    <tripinfo id="passenger52" depart="104.00" departLane="A0A1_0" departPos="5.10" departSpeed="0.00" departDelay="0.00" arrival="134.70" arrivalLane="A0B0_0" arrivalPos="89.60" arrivalSpeed="13.07" duration="30.70" routeLength="284.11" waitingTime="0.00" waitingCount="0" stopTime="0.00" timeLoss="7.30" rerouteNo="0" devices="tripinfo_passenger52" vType="passenger" speedFactor="0.95" vaporized=""/>
    <tripinfo id="passenger46" depart="94.20" departLane="A0B0_0" departPos="5.10" departSpeed="0.00" departDelay="2.20" arrival="138.10" arrivalLane="C1C0_0" arrivalPos="85.60" arrivalSpeed="10.43" duration="43.90" routeLength="373.55" waitingTime="0.00" waitingCount="0" stopTime="0.00" timeLoss="10.91" rerouteNo="1" devices="tripinfo_passenger46" vType="passenger" speedFactor="0.89" vaporized=""/>
    <tripinfo id="passenger57" depart="120.90" departLane="D1D0_0" departPos="5.10" departSpeed="0.00" departDelay="6.90" arrival="142.80" arrivalLane="D0C0_0" arrivalPos="89.60" arrivalSpeed="12.17" duration="21.90" routeLength="180.68" waitingTime="0.00" waitingCount="0" stopTime="0.00" timeLoss="6.57" rerouteNo="0" devices="tripinfo_passenger57" vType="passenger" speedFactor="0.88" vaporized=""/>
    <tripinfo id="passenger47" depart="94.00" departLane="D0D1_0" departPos="5.10" departSpeed="0.00" departDelay="0.00" arrival="144.10" arrivalLane="B0A0_0" arrivalPos="89.60" arrivalSpeed="14.23" duration="50.10" routeLength="482.95" waitingTime="4.00" waitingCount="2" stopTime="0.00" timeLoss="14.94" rerouteNo="0" devices="tripinfo_passenger47" vType="passenger" speedFactor="1.03" vaporized=""/>
    <tripinfo id="passenger63" depart="126.00" departLane="C1C0_0" departPos="5.10" departSpeed="0.00" departDelay="0.00" arrival="144.20" arrivalLane="C0B0_0" arrivalPos="85.60" arrivalSpeed="14.95" duration="18.20" routeLength="175.13" waitingTime="0.00" waitingCount="0" stopTime="0.00" timeLoss="5.84" rerouteNo="0" devices="tripinfo_passenger63" vType="passenger" speedFactor="1.08" vaporized=""/>
    <tripinfo id="passenger68" depart="138.30" departLane="D0C0_0" departPos="5.10" departSpeed="0.00" departDelay="2.30" arrival="148.00" arrivalLane="D0C0_0" arrivalPos="89.60" arrivalSpeed="12.43" duration="9.70" routeLength="84.50" waitingTime="0.00" waitingCount="0" stopTime="0.00" timeLoss="2.94" rerouteNo="0" devices="tripinfo_passenger68" vType="passenger" speedFactor="0.90" vaporized=""/>
    <tripinfo id="passenger51" depart="103.40" departLane="D0D1_0" departPos="5.10" departSpeed="0.00" departDelay="1.40" arrival="148.80" arrivalLane="B1A1_0" arrivalPos="89.60" arrivalSpeed="14.68" duration="45.40" routeLength="389.84" waitingTime="0.00" waitingCount="0" stopTime="0.00" timeLoss="18.23" rerouteNo="0" devices="tripinfo_passenger51" vType="passenger" speedFactor="1.06" vaporized=""/>
    <tripinfo id="passenger54" depart="114.00" departLane="B1C1_0" departPos="5.10" departSpeed="0.00" departDelay="6.00" arrival="149.10" arrivalLane="B1B0_0" arrivalPos="85.60" arrivalSpeed="8.76" duration="35.10" routeLength="270.57" waitingTime="1.10" waitingCount="1" stopTime="0.00" timeLoss="12.06" rerouteNo="0" devices="tripinfo_passenger54" vType="passenger" speedFactor="0.92" vaporized=""/>
    <tripinfo id="passenger48" depart="100.70" departLane="D0D1_0" departPos="5.10" departSpeed="0.00" departDelay="4.70" arrival="149.60" arrivalLane="C0D0_0" arrivalPos="89.60" arrivalSpeed="13.13" duration="48.90" routeLength="373.23" waitingTime="1.40" waitingCount="1" stopTime="0.00" timeLoss="18.05" rerouteNo="0" devices="tripinfo_passenger48" vType="passenger" speedFactor="0.95" vaporized=""/>
    <tripinfo id="passenger60" depart="120.00" departLane="C0C1_0" departPos="5.10" departSpeed="0.00" departDelay="0.00" arrival="152.20" arrivalLane="D1D0_0" arrivalPos="93.60" arrivalSpeed="11.30" duration="32.20" routeLength="275.31" waitingTime="0.00" waitingCount="0" stopTime="0.00" timeLoss="6.51" rerouteNo="0" devices="tripinfo_passenger60" vType="passenger" speedFactor="0.82" vaporized=""/>
    <tripinfo id="passenger55" depart="110.00" departLane="B1A1_0" departPos="5.10" departSpeed="0.00" departDelay="0.00" arrival="156.30" arrivalLane="B0B1_0" arrivalPos="85.60" arrivalSpeed="12.11" duration="46.30" routeLength="363.67" waitingTime="3.00" waitingCount="1" stopTime="0.00" timeLoss="13.24" rerouteNo="0" devices="tripinfo_passenger55" vType="passenger" speedFactor="0.87" vaporized=""/>
    <tripinfo id="passenger58" depart="116.00" departLane="B1B0_0" departPos="5.10" departSpeed="0.00" departDelay="0.00" arrival="157.70" arrivalLane="A1A0_0" arrivalPos="93.60" arrivalSpeed="12.83" duration="41.70" routeLength="373.58" waitingTime="0.00" waitingCount="0" stopTime="0.00" timeLoss="10.41" rerouteNo="0" devices="tripinfo_passenger58" vType="passenger" speedFactor="0.93" vaporized=""/>
    <tripinfo id="passenger73" depart="149.60" departLane="D0C0_0" departPos="5.10" departSpeed="0.00" departDelay="3.60" arrival="159.20" arrivalLane="D0C0_0" arrivalPos="89.60" arrivalSpeed="13.58" duration="9.60" routeLength="84.50" waitingTime="0.00" waitingCount="0" stopTime="0.00" timeLoss="3.39" rerouteNo="0" devices="tripinfo_passenger73" vType="passenger" speedFactor="0.98" vaporized=""/>
    <tripinfo id="passenger61" depart="122.00" departLane="C0D0_0" departPos="5.10" departSpeed="0.00" departDelay="0.00" arrival="168.50" arrivalLane="B1C1_0" arrivalPos="85.60" arrivalSpeed="15.18" duration="46.50" routeLength="468.03" waitingTime="1.30" waitingCount="1" stopTime="0.00" timeLoss="13.73" rerouteNo="0" devices="tripinfo_passenger61" vType="passenger" speedFactor="1.10" vaporized=""/>
    <tripinfo id="passenger77" depart="159.20" departLane="C0B0_0" departPos="5.10" departSpeed="0.00" departDelay="5.20" arrival="168.90" arrivalLane="C0B0_0" arrivalPos="85.60" arrivalSpeed="11.98" duration="9.70" routeLength="80.50" waitingTime="0.00" waitingCount="0" stopTime="0.00" timeLoss="2.97" rerouteNo="0" devices="tripinfo_passenger77" vType="passenger" speedFactor="0.87" vaporized=""/>
    <tripinfo id="passenger50" depart="107.50" departLane="C1D1_0" departPos="5.10" departSpeed="0.00" departDelay="7.50" arrival="170.40" arrivalLane="A0A1_0" arrivalPos="93.60" arrivalSpeed="14.85" duration="62.90" routeLength="573.37" waitingTime="0.00" waitingCount="0" stopTime="0.00" timeLoss="21.84" rerouteNo="0" devices="tripinfo_passenger50" vType="passenger" speedFactor="1.08" vaporized=""/>
    <tripinfo id="passenger76" depart="152.00" departLane="C1D1_0" departPos="5.10" departSpeed="0.00" departDelay="0.00" arrival="171.40" arrivalLane="D1D0_0" arrivalPos="93.60" arrivalSpeed="13.61" duration="19.40" routeLength="180.68" waitingTime="0.00" waitingCount="0" stopTime="0.00" timeLoss="5.77" rerouteNo="0" devices="tripinfo_passenger76" vType="passenger" speedFactor="0.99" vaporized=""/>
    <tripinfo id="passenger66" depart="132.00" departLane="C0D0_0" departPos="5.10" departSpeed="0.00" departDelay="0.00" arrival="172.10" arrivalLane="B0B1_0" arrivalPos="85.60" arrivalSpeed="13.87" duration="40.10" routeLength="373.40" waitingTime="2.60" waitingCount="1" stopTime="0.00" timeLoss="11.73" rerouteNo="0" devices="tripinfo_passenger66" vType="passenger" speedFactor="1.00" vaporized=""/>
    <tripinfo id="passenger62" depart="136.80" departLane="A0B0_0" departPos="5.10" departSpeed="0.00" departDelay="12.80" arrival="175.50" arrivalLane="A1B1_0" arrivalPos="89.60" arrivalSpeed="16.03" duration="38.70" routeLength="367.14" waitingTime="0.00" waitingCount="0" stopTime="0.00" timeLoss="14.27" rerouteNo="0" devices="tripinfo_passenger62" vType="passenger" speedFactor="1.16" vaporized=""/>
    <tripinfo id="passenger64" depart="129.00" departLane="B1A1_0" departPos="5.10" departSpeed="0.00" departDelay="1.00" arrival="176.40" arrivalLane="D1C1_0" arrivalPos="89.60" arrivalSpeed="12.85" duration="47.40" routeLength="477.04" waitingTime="0.00" waitingCount="0" stopTime="0.00" timeLoss="8.54" rerouteNo="0" devices="tripinfo_passenger64" vType="passenger" speedFactor="0.93" vaporized=""/>
    <tripinfo id="passenger53" depart="106.00" departLane="B0A0_0" departPos="5.10" departSpeed="0.00" departDelay="0.00" arrival="177.80" arrivalLane="D0D1_0" arrivalPos="93.60" arrivalSpeed="13.39" duration="71.80" routeLength="672.95" waitingTime="1.10" waitingCount="1" stopTime="0.00" timeLoss="16.95" rerouteNo="1" devices="tripinfo_passenger53" vType="passenger" speedFactor="0.97" vaporized=""/>
    <tripinfo id="passenger85" depart="170.00" departLane="D1D0_0" departPos="5.10" departSpeed="0.00" departDelay="0.00" arrival="179.50" arrivalLane="D1D0_0" arrivalPos="93.60" arrivalSpeed="16.26" duration="9.50" routeLength="88.50" waitingTime="0.00" waitingCount="0" stopTime="0.00" timeLoss="4.05" rerouteNo="0" devices="tripinfo_passenger85" vType="passenger" speedFactor="1.18" vaporized=""/>
    <tripinfo id="passenger59" depart="118.00" departLane="B0A0_0" departPos="5.10" departSpeed="0.00" departDelay="0.00" arrival="179.60" arrivalLane="D1C1_0" arrivalPos="89.60" arrivalSpeed="14.19" duration="61.60" routeLength="571.46" waitingTime="3.70" waitingCount="1" stopTime="0.00" timeLoss="18.29" rerouteNo="1" devices="tripinfo_passenger59" vType="passenger" speedFactor="1.03" vaporized=""/>
    <tripinfo id="passenger81" depart="163.50" departLane="B0A0_0" departPos="5.10" departSpeed="0.00" departDelay="1.50" arrival="183.10" arrivalLane="A0A1_0" arrivalPos="93.60" arrivalSpeed="14.11" duration="19.60" routeLength="180.68" waitingTime="0.00" waitingCount="0" stopTime="0.00" timeLoss="6.28" rerouteNo="0" devices="tripinfo_passenger81" vType="passenger" speedFactor="1.02" vaporized=""/>
    <tripinfo id="passenger70" depart="140.00" departLane="C1B1_0" departPos="5.10" departSpeed="0.00" departDelay="0.00" arrival="185.20" arrivalLane="C0D0_0" arrivalPos="89.60" arrivalSpeed="12.11" duration="45.20" routeLength="369.20" waitingTime="3.30" waitingCount="1" stopTime="0.00" timeLoss="12.09" rerouteNo="0" devices="tripinfo_passenger70" vType="passenger" speedFactor="0.88" vaporized=""/>